
    -----------------------------------------------------------------------
          Psi4: An Open-Source Ab Initio Electronic Structure Package
                               Psi4 1.9.1 release

                         Git: Rev {} zzzzzzz 


    D. G. A. Smith, L. A. Burns, A. C. Simmonett, R. M. Parrish,
    M. C. Schieber, R. Galvelis, P. Kraus, H. Kruse, R. Di Remigio,
    A. Alenaizan, A. M. James, S. Lehtola, J. P. Misiewicz, M. Scheurer,
    R. A. Shaw, J. B. Schriber, Y. Xie, Z. L. Glick, D. A. Sirianni,
    J. S. O'Brien, J. M. Waldrop, A. Kumar, E. G. Hohenstein,
    B. P. Pritchard, B. R. Brooks, H. F. Schaefer III, A. Yu. Sokolov,
    K. Patkowski, A. E. DePrince III, U. Bozkaya, R. A. King,
    F. A. Evangelista, J. M. Turney, T. D. Crawford, C. D. Sherrill,
    J. Chem. Phys. 152(18) 184108 (2020). https://doi.org/10.1063/5.0006002

                            Additional Code Authors
    E. T. Seidl, C. L. Janssen, E. F. Valeev, M. L. Leininger,
    J. F. Gonthier, R. M. Richard, H. R. McAlexander, M. Saitow, X. Wang,
    P. Verma, M. H. Lechner, A. Jiang, S. Behnle, A. G. Heide,
    M. F. Herbst, and D. L. Poole

             Previous Authors, Complete List of Code Contributors,
                       and Citations for Specific Modules
    https://github.com/psi4/psi4/blob/master/codemeta.json
    https://github.com/psi4/psi4/graphs/contributors
    http://psicode.org/psi4manual/master/introduction.html#citing-psifour

    -----------------------------------------------------------------------


    Psi4 started on: Tuesday, 17 September 2024 01:35PM

    Process ID: 597322
    Host:       cmpsrv002
    PSIDATADIR: /home/vance/anaconda3/envs/p4env/share/psi4
    Memory:     500.0 MiB
    Threads:    4
    
  ==> Input File <==

--------------------------------------------------------------------------
#charge=0 charge_a=0 charge_b=0 selection_a=1-2 selection_b=3-6 scaling=1.1 benchmark_Eint=-9.339 benchmark_unit=kcal/mol group=XH-N
set_num_threads(4)
memory 8 GB
basis this_basis {
    assign    aug-cc-pVQZ
}

molecule {
     0 1
    --
     0 1
     H        0.00000       -0.31269        0.00000
    Cl       -0.00000        1.03066        0.00000
    --
     0 1
     N        0.00000       -2.20666        0.00000
     H       -0.47318       -2.56567        0.81958
     H       -0.47318       -2.56567       -0.81958
     H        0.94637       -2.56567        0.00000
}

set {
    scf_type                DF
    freeze_core             true
    sapt_dft_grac_shift_a    0.116251
    sapt_dft_grac_shift_b    0.113162
    sapt_dft_do_hybrid      true
    do_ind_exch_sinf        true
    do_disp_exch_sinf       true
}

nrg = energy('sapt(DFT)')
--------------------------------------------------------------------------
  Threads set to 4 by Python driver.

  Memory set to   7.451 GiB by Python driver.

Scratch directory: /scratch2/vance/psi4/

*** tstart() called on cmpsrv002
*** at Tue Sep 17 13:35:31 2024

  SAPT does not make use of molecular symmetry, further calculations in C1 point group.

         ---------------------------------------------------------
                            SAPT(DFT) Procedure                    

                           by Daniel G. A. Smith                   
         ---------------------------------------------------------

Warning! The default value of SAPT_DFT_EXCH_DISP_SCALE_SCHEME has changed from DISP to FIXED. Please be careful comparing results with earlier versions. 

  ==> Algorithm <==

   SAPT DFT Functional             PBE0
   Monomer A GRAC Shift        0.116251
   Monomer B GRAC Shift        0.113162
   Delta HF                        True
   JK Algorithm                      DF

   Required computations:
     HF  (Dimer)
     HF  (Monomer A)
     HF  (Monomer B)
     DFT (Monomer A)
     DFT (Monomer B)

   => Libint2 <=

    Primary   basis highest AM E, G, H:  6, 6, 3
    Auxiliary basis highest AM E, G, H:  7, 7, 4
    Onebody   basis highest AM E, G, H:  -, -, -
    Solid Harmonics ordering:            Gaussian

*** tstart() called on cmpsrv002
*** at Tue Sep 17 13:35:31 2024

   => Loading Basis Set <=

    Name: THIS_BASIS
    Role: ORBITAL
    Keyword: BASIS
    atoms 1, 4-6 entry H          line    40 file /home/vance/anaconda3/envs/p4env/share/psi4/basis/aug-cc-pvqz.gbs 
    atoms 2      entry CL         line  1222 file /home/vance/anaconda3/envs/p4env/share/psi4/basis/aug-cc-pvqz.gbs 
    atoms 3      entry N          line   363 file /home/vance/anaconda3/envs/p4env/share/psi4/basis/aug-cc-pvqz.gbs 


         ---------------------------------------------------------
                         SAPT(DFT): delta HF Dimer                 
         ---------------------------------------------------------
                                   SCF
               by Justin Turney, Rob Parrish, Andy Simmonett
                          and Daniel G. A. Smith
                              RHF Reference
                        4 Threads,   7629 MiB Core
         ---------------------------------------------------------

  ==> Geometry <==

    Molecular point group: c1
    Full point group: Cs

    Geometry (in Angstrom), charge = 0, multiplicity = 1:

       Center              X                  Y                   Z               Mass       
    ------------   -----------------  -----------------  -----------------  -----------------
         H           -0.000000190144    -0.257383900463     0.000000000000     1.007825032230
         CL          -0.000000190144     1.085966099537     0.000000000000    34.968852682000
         N           -0.000000190144    -2.151353900463     0.000000000000    14.003074004430
         H           -0.473180190144    -2.510363900463     0.819580000000     1.007825032230
         H           -0.473180190144    -2.510363900463    -0.819580000000     1.007825032230
         H            0.946369809856    -2.510363900463     0.000000000000     1.007825032230

  Running in c1 symmetry.

  Rotational constants: A =      6.22544  B =      0.13324  C =      0.13324 [cm^-1]
  Rotational constants: A = 186633.95025  B =   3994.31046  C =   3994.31020 [MHz]
  Nuclear repulsion =   47.958881424266949

  Charge       = 0
  Multiplicity = 1
  Electrons    = 28
  Nalpha       = 14
  Nbeta        = 14

  ==> Algorithm <==

  SCF Algorithm Type is DF.
  DIIS enabled.
  MOM disabled.
  Fractional occupation disabled.
  Guess Type is SAD.
  Energy threshold   = 1.00e-08
  Density threshold  = 1.00e-08
  Integral threshold = 1.00e-12

  ==> Primary Basis <==

  Basis Set: THIS_BASIS
    Blend: AUG-CC-PVQZ
    Number of shells: 98
    Number of basis functions: 348
    Number of Cartesian functions: 434
    Spherical Harmonics?: true
    Max angular momentum: 4

   => Loading Basis Set <=

    Name: (THIS_BASIS AUX)
    Role: JKFIT
    Keyword: DF_BASIS_SCF
    atoms 1, 4-6 entry H          line    70 file /home/vance/anaconda3/envs/p4env/share/psi4/basis/aug-cc-pvqz-jkfit.gbs 
    atoms 2      entry CL         line   904 file /home/vance/anaconda3/envs/p4env/share/psi4/basis/aug-cc-pvqz-jkfit.gbs 
    atoms 3      entry N          line   248 file /home/vance/anaconda3/envs/p4env/share/psi4/basis/aug-cc-pvqz-jkfit.gbs 

  ==> Integral Setup <==

  ==> DiskDFJK: Density-Fitted J/K Matrices <==

    J tasked:                  Yes
    K tasked:                  Yes
    wK tasked:                  No
    OpenMP threads:              4
    Integrals threads:           4
    Memory [MiB]:             5722
    Algorithm:                Core
    Integral Cache:           SAVE
    Schwarz Cutoff:          1E-12
    Fitting Condition:       1E-10

   => Auxiliary Basis Set <=

  Basis Set: (THIS_BASIS AUX)
    Blend: AUG-CC-PVQZ-JKFIT
    Number of shells: 152
    Number of basis functions: 630
    Number of Cartesian functions: 849
    Spherical Harmonics?: true
    Max angular momentum: 5

  Minimum eigenvalue in the overlap matrix is 1.3916260284E-05.
  Reciprocal condition number of the overlap matrix is 1.1989806295E-06.
    Using symmetric orthogonalization.

  ==> Pre-Iterations <==

  SCF Guess: Superposition of Atomic Densities via on-the-fly atomic UHF (no occupation information).

   -------------------------
    Irrep   Nso     Nmo    
   -------------------------
     A        348     348 
   -------------------------
    Total     348     348
   -------------------------

  ==> Iterations <==

                           Total Energy        Delta E     RMS |[F,P]|

   @DF-RHF iter SAD:  -515.63632022177865   -5.15636e+02   0.00000e+00 
   @DF-RHF iter   1:  -516.24487493852644   -6.08555e-01   1.31769e-03 DIIS/ADIIS
   @DF-RHF iter   2:  -516.31989032161960   -7.50154e-02   6.83221e-04 DIIS/ADIIS
   @DF-RHF iter   3:  -516.34132453057691   -2.14342e-02   9.30235e-05 DIIS
   @DF-RHF iter   4:  -516.34228450027354   -9.59970e-04   3.24402e-05 DIIS
   @DF-RHF iter   5:  -516.34237724531113   -9.27450e-05   7.76573e-06 DIIS
   @DF-RHF iter   6:  -516.34238783527906   -1.05900e-05   1.74669e-06 DIIS
   @DF-RHF iter   7:  -516.34238848140842   -6.46129e-07   4.96105e-07 DIIS
   @DF-RHF iter   8:  -516.34238852323790   -4.18295e-08   1.12224e-07 DIIS
   @DF-RHF iter   9:  -516.34238852494707   -1.70917e-09   2.20784e-08 DIIS
   @DF-RHF iter  10:  -516.34238852502256   -7.54881e-11   4.21059e-09 DIIS
  Energy and wave function converged.


  ==> Post-Iterations <==

    Orbital Energies [Eh]
    ---------------------

    Doubly Occupied:                                                      

       1A   -104.803029     2A    -15.577988     3A    -10.528752  
       4A     -7.995824     5A     -7.994467     6A     -7.994467  
       7A     -1.180970     8A     -1.065358     9A     -0.669302  
      10A     -0.669300    11A     -0.591644    12A     -0.454920  
      13A     -0.436734    14A     -0.436734  

    Virtual:                                                              

      15A      0.018123    16A      0.038578    17A      0.038578  
      18A      0.050662    19A      0.106565    20A      0.112250  
      21A      0.114101    22A      0.114101    23A      0.129087  
      24A      0.129088    25A      0.138838    26A      0.168647  
      27A      0.168648    28A      0.174893    29A      0.195491  
      30A      0.195491    31A      0.256260    32A      0.272014  
      33A      0.275257    34A      0.284458    35A      0.284458  
      36A      0.308350    37A      0.308351    38A      0.313222  
      39A      0.319834    40A      0.319834    41A      0.336646  
      42A      0.361941    43A      0.361941    44A      0.363147  
      45A      0.385885    46A      0.385885    47A      0.429864  
      48A      0.432018    49A      0.432018    50A      0.461995  
      51A      0.463635    52A      0.463635    53A      0.476083  
      54A      0.538946    55A      0.538946    56A      0.599070  
      57A      0.599070    58A      0.622738    59A      0.661967  
      60A      0.673558    61A      0.673558    62A      0.680467  
      63A      0.687163    64A      0.687163    65A      0.716414  
      66A      0.724042    67A      0.724042    68A      0.724851  
      69A      0.754092    70A      0.754092    71A      0.758290  
      72A      0.771916    73A      0.771917    74A      0.777990  
      75A      0.794928    76A      0.794928    77A      0.846135  
      78A      0.856689    79A      0.862031    80A      0.862032  
      81A      0.917165    82A      0.919836    83A      0.919836  
      84A      0.933171    85A      0.933171    86A      0.974004  
      87A      0.978291    88A      0.978292    89A      0.991690  
      90A      1.040689    91A      1.040690    92A      1.069675  
      93A      1.069675    94A      1.070624    95A      1.143325  
      96A      1.237355    97A      1.237356    98A      1.244460  
      99A      1.297430   100A      1.302376   101A      1.302376  
     102A      1.344345   103A      1.394545   104A      1.394545  
     105A      1.404638   106A      1.417942   107A      1.423148  
     108A      1.423149   109A      1.458354   110A      1.532372  
     111A      1.532373   112A      1.546827   113A      1.546828  
     114A      1.568863   115A      1.630110   116A      1.630110  
     117A      1.668930   118A      1.691255   119A      1.693251  
     120A      1.693664   121A      1.693664   122A      1.749666  
     123A      1.780914   124A      1.780915   125A      1.802932  
     126A      1.802933   127A      1.818430   128A      1.818430  
     129A      1.864960   130A      1.878553   131A      1.878554  
     132A      1.884030   133A      1.898556   134A      1.898556  
     135A      1.905145   136A      1.947323   137A      1.947324  
     138A      1.995640   139A      1.995640   140A      2.027723  
     141A      2.035491   142A      2.051543   143A      2.051543  
     144A      2.062470   145A      2.077688   146A      2.079036  
     147A      2.079036   148A      2.093799   149A      2.113904  
     150A      2.159700   151A      2.159701   152A      2.188097  
     153A      2.206445   154A      2.206445   155A      2.227948  
     156A      2.227948   157A      2.247783   158A      2.311405  
     159A      2.311405   160A      2.318812   161A      2.338517  
     162A      2.338517   163A      2.357126   164A      2.452607  
     165A      2.471384   166A      2.507466   167A      2.507466  
     168A      2.606905   169A      2.610291   170A      2.610294  
     171A      2.699819   172A      2.699822   173A      2.760890  
     174A      2.804756   175A      2.804756   176A      2.883911  
     177A      2.901643   178A      2.919238   179A      2.919239  
     180A      2.976046   181A      2.976047   182A      3.010201  
     183A      3.010204   184A      3.014783   185A      3.086804  
     186A      3.132056   187A      3.144949   188A      3.161307  
     189A      3.161308   190A      3.212392   191A      3.212394  
     192A      3.237315   193A      3.237317   194A      3.329326  
     195A      3.329326   196A      3.472877   197A      3.503725  
     198A      3.503725   199A      3.584883   200A      3.608952  
     201A      3.608953   202A      3.663247   203A      3.703274  
     204A      3.749129   205A      3.749129   206A      3.848341  
     207A      3.974995   208A      3.974997   209A      4.021582  
     210A      4.086765   211A      4.088681   212A      4.088682  
     213A      4.182797   214A      4.182799   215A      4.192794  
     216A      4.267151   217A      4.270242   218A      4.270245  
     219A      4.347995   220A      4.403852   221A      4.403852  
     222A      4.491752   223A      4.491752   224A      4.497458  
     225A      4.697103   226A      4.700183   227A      4.700184  
     228A      4.740798   229A      4.740798   230A      4.747676  
     231A      4.748715   232A      4.758044   233A      4.758044  
     234A      4.779344   235A      4.779933   236A      4.818103  
     237A      4.818103   238A      4.909259   239A      4.966446  
     240A      4.966446   241A      4.980979   242A      4.980979  
     243A      5.052262   244A      5.052262   245A      5.094082  
     246A      5.208094   247A      5.208096   248A      5.276031  
     249A      5.390202   250A      5.390202   251A      5.444193  
     252A      5.666575   253A      5.666575   254A      5.702921  
     255A      5.985779   256A      6.679395   257A      6.684592  
     258A      6.684595   259A      6.686311   260A      6.847827  
     261A      6.921552   262A      6.921554   263A      6.963720  
     264A      6.963721   265A      7.162411   266A      7.162411  
     267A      7.277103   268A      7.337160   269A      7.407900  
     270A      7.407903   271A      7.491897   272A      7.518792  
     273A      7.518792   274A      7.631595   275A      7.659038  
     276A      7.749140   277A      7.749146   278A      7.825156  
     279A      7.825160   280A      8.049172   281A      8.049172  
     282A      8.054337   283A      8.194241   284A      8.194245  
     285A      8.288851   286A      8.335799   287A      8.409754  
     288A      8.409757   289A      8.567234   290A      8.567499  
     291A      8.567506   292A      8.606564   293A      8.715824  
     294A      8.715825   295A      8.773197   296A      8.773202  
     297A      8.857813   298A      8.857814   299A      8.926886  
     300A      8.926890   301A      8.945733   302A      8.947528  
     303A      9.007726   304A      9.030476   305A      9.105939  
     306A      9.105943   307A      9.177179   308A      9.361691  
     309A      9.361693   310A      9.419339   311A      9.419342  
     312A      9.585254   313A      9.614758   314A      9.614762  
     315A      9.683247   316A      9.683249   317A      9.713095  
     318A      9.908400   319A      9.930226   320A      9.930233  
     321A     10.036333   322A     10.103858   323A     10.103861  
     324A     10.280073   325A     10.374011   326A     10.374015  
     327A     10.545992   328A     10.545996   329A     10.550217  
     330A     10.842043   331A     10.858967   332A     11.006810  
     333A     11.006813   334A     11.426972   335A     11.875370  
     336A     12.181270   337A     12.181277   338A     12.282967  
     339A     12.339919   340A     12.339933   341A     13.036208  
     342A     13.140067   343A     13.140077   344A     14.895160  
     345A     15.086018   346A     15.086029   347A     26.452256  
     348A     36.791253  

    Final Occupation by Irrep:
              A 
    DOCC [    14 ]
    NA   [    14 ]
    NB   [    14 ]

  @DF-RHF Final Energy:  -516.34238852502256

   => Energetics <=

    Nuclear Repulsion Energy =             47.9588814242669486
    One-Electron Energy =                -807.8035592589810676
    Two-Electron Energy =                 243.5022893096916334
    Total Energy =                       -516.3423885250225567

Computation Completed


Properties will be evaluated at   0.000000,   0.000000,   0.000000 [a0]

Properties computed using the SCF density matrix


 Multipole Moments:

 ------------------------------------------------------------------------------------
     Multipole            Electronic (a.u.)      Nuclear  (a.u.)        Total (a.u.)
 ------------------------------------------------------------------------------------

 L = 1.  Multiply by 2.5417464519 to convert [e a0] to [Debye]
 Dipole X            :         -0.0000059            0.0000088            0.0000030
 Dipole Y            :          6.6054084           -8.2893389           -1.6839305
 Dipole Z            :         -0.0000000            0.0000000           -0.0000000
 Magnitude           :                                                    1.6839305

 ------------------------------------------------------------------------------------

*** tstop() called on cmpsrv002 at Tue Sep 17 13:35:37 2024
Module time:
	user time   =      19.83 seconds =       0.33 minutes
	system time =       1.94 seconds =       0.03 minutes
	total time  =          6 seconds =       0.10 minutes
Total time:
	user time   =      19.83 seconds =       0.33 minutes
	system time =       1.94 seconds =       0.03 minutes
	total time  =          6 seconds =       0.10 minutes
   => Libint2 <=

    Primary   basis highest AM E, G, H:  6, 6, 3
    Auxiliary basis highest AM E, G, H:  7, 7, 4
    Onebody   basis highest AM E, G, H:  -, -, -
    Solid Harmonics ordering:            Gaussian

*** tstart() called on cmpsrv002
*** at Tue Sep 17 13:35:37 2024

   => Loading Basis Set <=

    Name: THIS_BASIS
    Role: ORBITAL
    Keyword: BASIS
    atoms 1, 4-6 entry H          line    40 file /home/vance/anaconda3/envs/p4env/share/psi4/basis/aug-cc-pvqz.gbs 
    atoms 2      entry CL         line  1222 file /home/vance/anaconda3/envs/p4env/share/psi4/basis/aug-cc-pvqz.gbs 
    atoms 3      entry N          line   363 file /home/vance/anaconda3/envs/p4env/share/psi4/basis/aug-cc-pvqz.gbs 


         ---------------------------------------------------------
                       SAPT(DFT): delta HF Monomer A               
         ---------------------------------------------------------
                                   SCF
               by Justin Turney, Rob Parrish, Andy Simmonett
                          and Daniel G. A. Smith
                              RHF Reference
                        4 Threads,   7629 MiB Core
         ---------------------------------------------------------

  ==> Geometry <==

    Molecular point group: c1
    Full point group: Cs

    Geometry (in Angstrom), charge = 0, multiplicity = 1:

       Center              X                  Y                   Z               Mass       
    ------------   -----------------  -----------------  -----------------  -----------------
         H           -0.000000190144    -0.257383900463     0.000000000000     1.007825032230
         CL          -0.000000190144     1.085966099537     0.000000000000    34.968852682000
      Gh(N)          -0.000000190144    -2.151353900463     0.000000000000    14.003074004430
      Gh(H)          -0.473180190144    -2.510363900463     0.819580000000     1.007825032230
      Gh(H)          -0.473180190144    -2.510363900463    -0.819580000000     1.007825032230
      Gh(H)           0.946369809856    -2.510363900463     0.000000000000     1.007825032230

  Running in c1 symmetry.

  Rotational constants: A =      6.22544  B =      0.13324  C =      0.13324 [cm^-1]
  Rotational constants: A = 186633.95025  B =   3994.31046  C =   3994.31020 [MHz]
  Nuclear repulsion =    6.696700473733578

  Charge       = 0
  Multiplicity = 1
  Electrons    = 18
  Nalpha       = 9
  Nbeta        = 9

  ==> Algorithm <==

  SCF Algorithm Type is DF.
  DIIS enabled.
  MOM disabled.
  Fractional occupation disabled.
  Guess Type is SAD.
  Energy threshold   = 1.00e-08
  Density threshold  = 1.00e-08
  Integral threshold = 1.00e-12

  ==> Primary Basis <==

  Basis Set: THIS_BASIS
    Blend: AUG-CC-PVQZ
    Number of shells: 98
    Number of basis functions: 348
    Number of Cartesian functions: 434
    Spherical Harmonics?: true
    Max angular momentum: 4

   => Loading Basis Set <=

    Name: (THIS_BASIS AUX)
    Role: JKFIT
    Keyword: DF_BASIS_SCF
    atoms 1, 4-6 entry H          line    70 file /home/vance/anaconda3/envs/p4env/share/psi4/basis/aug-cc-pvqz-jkfit.gbs 
    atoms 2      entry CL         line   904 file /home/vance/anaconda3/envs/p4env/share/psi4/basis/aug-cc-pvqz-jkfit.gbs 
    atoms 3      entry N          line   248 file /home/vance/anaconda3/envs/p4env/share/psi4/basis/aug-cc-pvqz-jkfit.gbs 

  ==> Integral Setup <==

  ==> DiskDFJK: Density-Fitted J/K Matrices <==

    J tasked:                  Yes
    K tasked:                  Yes
    wK tasked:                  No
    OpenMP threads:              4
    Integrals threads:           4
    Memory [MiB]:             5722
    Algorithm:                Core
    Integral Cache:           SAVE
    Schwarz Cutoff:          1E-12
    Fitting Condition:       1E-10

   => Auxiliary Basis Set <=

  Basis Set: (THIS_BASIS AUX)
    Blend: AUG-CC-PVQZ-JKFIT
    Number of shells: 152
    Number of basis functions: 630
    Number of Cartesian functions: 849
    Spherical Harmonics?: true
    Max angular momentum: 5

  Minimum eigenvalue in the overlap matrix is 1.3916260284E-05.
  Reciprocal condition number of the overlap matrix is 1.1989806295E-06.
    Using symmetric orthogonalization.

  ==> Pre-Iterations <==

  SCF Guess: Superposition of Atomic Densities via on-the-fly atomic UHF (no occupation information).

   -------------------------
    Irrep   Nso     Nmo    
   -------------------------
     A        348     348 
   -------------------------
    Total     348     348
   -------------------------

  ==> Iterations <==

                           Total Energy        Delta E     RMS |[F,P]|

   @DF-RHF iter SAD:  -459.87084648279256   -4.59871e+02   0.00000e+00 
   @DF-RHF iter   1:  -460.08496881320889   -2.14122e-01   5.44937e-04 DIIS/ADIIS
   @DF-RHF iter   2:  -460.10488127252648   -1.99125e-02   2.29896e-04 DIIS/ADIIS
   @DF-RHF iter   3:  -460.10764240573855   -2.76113e-03   4.35620e-05 DIIS
   @DF-RHF iter   4:  -460.10798696945432   -3.44564e-04   1.25011e-05 DIIS
   @DF-RHF iter   5:  -460.10802043296906   -3.34635e-05   1.76116e-06 DIIS
   @DF-RHF iter   6:  -460.10802101166774   -5.78699e-07   3.78556e-07 DIIS
   @DF-RHF iter   7:  -460.10802102608051   -1.44128e-08   8.63610e-08 DIIS
   @DF-RHF iter   8:  -460.10802102724057   -1.16006e-09   1.68995e-08 DIIS
   @DF-RHF iter   9:  -460.10802102728360   -4.30305e-11   1.75857e-09 DIIS
  Energy and wave function converged.


  ==> Post-Iterations <==

    Orbital Energies [Eh]
    ---------------------

    Doubly Occupied:                                                      

       1A   -104.852114     2A    -10.576163     3A     -8.043297  
       4A     -8.041578     5A     -8.041578     6A     -1.105218  
       7A     -0.610908     8A     -0.475372     9A     -0.475372  

    Virtual:                                                              

      10A      0.018657    11A      0.042001    12A      0.042001  
      13A      0.043957    14A      0.084344    15A      0.100295  
      16A      0.105916    17A      0.105916    18A      0.123063  
      19A      0.123063    20A      0.126423    21A      0.161127  
      22A      0.184775    23A      0.184775    24A      0.194435  
      25A      0.210230    26A      0.210230    27A      0.271242  
      28A      0.271242    29A      0.271810    30A      0.282640  
      31A      0.283997    32A      0.286731    33A      0.286731  
      34A      0.306585    35A      0.311980    36A      0.311980  
      37A      0.356309    38A      0.360555    39A      0.360555  
      40A      0.401250    41A      0.401250    42A      0.419438  
      43A      0.446176    44A      0.446176    45A      0.458802  
      46A      0.475228    47A      0.499506    48A      0.499506  
      49A      0.546524    50A      0.599516    51A      0.599516  
      52A      0.625319    53A      0.625319    54A      0.627954  
      55A      0.640568    56A      0.640623    57A      0.640623  
      58A      0.658868    59A      0.658868    60A      0.662429  
      61A      0.662429    62A      0.716302    63A      0.724632  
      64A      0.740187    65A      0.763828    66A      0.763828  
      67A      0.788731    68A      0.788732    69A      0.790020  
      70A      0.825260    71A      0.835661    72A      0.851004  
      73A      0.851005    74A      0.890517    75A      0.890517  
      76A      0.912984    77A      0.929646    78A      0.929647  
      79A      0.931652    80A      0.968711    81A      0.968712  
      82A      0.991689    83A      1.028313    84A      1.028313  
      85A      1.073730    86A      1.080616    87A      1.080616  
      88A      1.100779    89A      1.127667    90A      1.127668  
      91A      1.150428    92A      1.238388    93A      1.256289  
      94A      1.256978    95A      1.256979    96A      1.278682  
      97A      1.278682    98A      1.370970    99A      1.370970  
     100A      1.409580   101A      1.419455   102A      1.425095  
     103A      1.425096   104A      1.521301   105A      1.529685  
     106A      1.560976   107A      1.560977   108A      1.614188  
     109A      1.614188   110A      1.639079   111A      1.672053  
     112A      1.702430   113A      1.715497   114A      1.719338  
     115A      1.719338   116A      1.769290   117A      1.769291  
     118A      1.776715   119A      1.776715   120A      1.846188  
     121A      1.846188   122A      1.858196   123A      1.869058  
     124A      1.869058   125A      1.883015   126A      1.884056  
     127A      1.884056   128A      1.896983   129A      1.947638  
     130A      1.947639   131A      1.981536   132A      1.981536  
     133A      1.986703   134A      2.009144   135A      2.009144  
     136A      2.024860   137A      2.057710   138A      2.061378  
     139A      2.061378   140A      2.063640   141A      2.079383  
     142A      2.128362   143A      2.145097   144A      2.145097  
     145A      2.192445   146A      2.194900   147A      2.194900  
     148A      2.196953   149A      2.225617   150A      2.225617  
     151A      2.242068   152A      2.283016   153A      2.283017  
     154A      2.312879   155A      2.338360   156A      2.338361  
     157A      2.346781   158A      2.364270   159A      2.364270  
     160A      2.397664   161A      2.397665   162A      2.469096  
     163A      2.494254   164A      2.578488   165A      2.578489  
     166A      2.691837   167A      2.691841   168A      2.724027  
     169A      2.750897   170A      2.811528   171A      2.811528  
     172A      2.863464   173A      3.042207   174A      3.042207  
     175A      3.119762   176A      3.119763   177A      3.145656  
     178A      3.200422   179A      3.219509   180A      3.219510  
     181A      3.245635   182A      3.267661   183A      3.267661  
     184A      3.277102   185A      3.309109   186A      3.341570  
     187A      3.341573   188A      3.421964   189A      3.448208  
     190A      3.448209   191A      3.525539   192A      3.525540  
     193A      3.629751   194A      3.629751   195A      3.707478  
     196A      3.756656   197A      3.804251   198A      3.804251  
     199A      3.807754   200A      3.826202   201A      3.886513  
     202A      3.886515   203A      4.013866   204A      4.013867  
     205A      4.058841   206A      4.154717   207A      4.196970  
     208A      4.196971   209A      4.315008   210A      4.315009  
     211A      4.369152   212A      4.375794   213A      4.375794  
     214A      4.417657   215A      4.417657   216A      4.420132  
     217A      4.516710   218A      4.536145   219A      4.536149  
     220A      4.671921   221A      4.678447   222A      4.678447  
     223A      4.709226   224A      4.710188   225A      4.715855  
     226A      4.715856   227A      4.722396   228A      4.722396  
     229A      4.741217   230A      4.741356   231A      4.803167  
     232A      4.803169   233A      4.815742   234A      4.955726  
     235A      4.955726   236A      5.018402   237A      5.018402  
     238A      5.087207   239A      5.148649   240A      5.383039  
     241A      5.476795   242A      5.476798   243A      5.627587  
     244A      5.627588   245A      5.803090   246A      5.803094  
     247A      5.805580   248A      5.851786   249A      5.954500  
     250A      5.954502   251A      6.227259   252A      6.453998  
     253A      6.572212   254A      6.572215   255A      6.640941  
     256A      6.647881   257A      6.669996   258A      6.669998  
     259A      7.112015   260A      7.118089   261A      7.118090  
     262A      7.181112   263A      7.181113   264A      7.259489  
     265A      7.259491   266A      7.404298   267A      7.641705  
     268A      7.679817   269A      7.679818   270A      7.782136  
     271A      8.179706   272A      8.200478   273A      8.200478  
     274A      8.231310   275A      8.231310   276A      8.234802  
     277A      8.303025   278A      8.303035   279A      8.376913  
     280A      8.499904   281A      8.501158   282A      8.501160  
     283A      8.678978   284A      8.678978   285A      8.706617  
     286A      8.706617   287A      8.790523   288A      8.790523  
     289A      8.867342   290A      9.034738   291A      9.066887  
     292A      9.066892   293A      9.195063   294A      9.268558  
     295A      9.268566   296A      9.422084   297A      9.464321  
     298A      9.464325   299A      9.521421   300A      9.528068  
     301A      9.528069   302A      9.566820   303A      9.580561  
     304A      9.635659   305A      9.635659   306A      9.835406  
     307A     10.096011   308A     10.096016   309A     10.160176  
     310A     10.188279   311A     10.188285   312A     10.468256  
     313A     10.515206   314A     10.515214   315A     10.630705  
     316A     10.725772   317A     10.725779   318A     10.826699  
     319A     10.838093   320A     10.838096   321A     11.022422  
     322A     11.359251   323A     11.359251   324A     11.509801  
     325A     12.006230   326A     12.006240   327A     12.130114  
     328A     12.338711   329A     12.549184   330A     12.549200  
     331A     13.176825   332A     13.176835   333A     13.381327  
     334A     14.021620   335A     14.322360   336A     14.495192  
     337A     14.495202   338A     14.697152   339A     14.697156  
     340A     16.064791   341A     16.064803   342A     16.371551  
     343A     18.326047   344A     19.865043   345A     21.870036  
     346A     21.870075   347A     26.415957   348A     96.431687  

    Final Occupation by Irrep:
              A 
    DOCC [     9 ]
    NA   [     9 ]
    NB   [     9 ]

  @DF-RHF Final Energy:  -460.10802102728360

   => Energetics <=

    Nuclear Repulsion Energy =              6.6967004737335785
    One-Electron Energy =                -649.1662421194115495
    Two-Electron Energy =                 182.3615206183943656
    Total Energy =                       -460.1080210272835984

Computation Completed


Properties will be evaluated at   0.000000,   0.000000,   0.000000 [a0]

Properties computed using the SCF density matrix


 Multipole Moments:

 ------------------------------------------------------------------------------------
     Multipole            Electronic (a.u.)      Nuclear  (a.u.)        Total (a.u.)
 ------------------------------------------------------------------------------------

 L = 1.  Multiply by 2.5417464519 to convert [e a0] to [Debye]
 Dipole X            :          0.0000065           -0.0000065            0.0000000
 Dipole Y            :        -34.8995126           34.4006496           -0.4988631
 Dipole Z            :          0.0000000            0.0000000            0.0000000
 Magnitude           :                                                    0.4988631

 ------------------------------------------------------------------------------------

*** tstop() called on cmpsrv002 at Tue Sep 17 13:35:42 2024
Module time:
	user time   =      16.49 seconds =       0.27 minutes
	system time =       1.77 seconds =       0.03 minutes
	total time  =          5 seconds =       0.08 minutes
Total time:
	user time   =      36.34 seconds =       0.61 minutes
	system time =       3.71 seconds =       0.06 minutes
	total time  =         11 seconds =       0.18 minutes
   => Libint2 <=

    Primary   basis highest AM E, G, H:  6, 6, 3
    Auxiliary basis highest AM E, G, H:  7, 7, 4
    Onebody   basis highest AM E, G, H:  -, -, -
    Solid Harmonics ordering:            Gaussian

*** tstart() called on cmpsrv002
*** at Tue Sep 17 13:35:42 2024

   => Loading Basis Set <=

    Name: THIS_BASIS
    Role: ORBITAL
    Keyword: BASIS
    atoms 1, 4-6 entry H          line    40 file /home/vance/anaconda3/envs/p4env/share/psi4/basis/aug-cc-pvqz.gbs 
    atoms 2      entry CL         line  1222 file /home/vance/anaconda3/envs/p4env/share/psi4/basis/aug-cc-pvqz.gbs 
    atoms 3      entry N          line   363 file /home/vance/anaconda3/envs/p4env/share/psi4/basis/aug-cc-pvqz.gbs 


         ---------------------------------------------------------
                       SAPT(DFT): delta HF Monomer B               
         ---------------------------------------------------------
                                   SCF
               by Justin Turney, Rob Parrish, Andy Simmonett
                          and Daniel G. A. Smith
                              RHF Reference
                        4 Threads,   7629 MiB Core
         ---------------------------------------------------------

  ==> Geometry <==

    Molecular point group: c1
    Full point group: Cs

    Geometry (in Angstrom), charge = 0, multiplicity = 1:

       Center              X                  Y                   Z               Mass       
    ------------   -----------------  -----------------  -----------------  -----------------
      Gh(H)          -0.000000190144    -0.257383900463     0.000000000000     1.007825032230
      Gh(CL)         -0.000000190144     1.085966099537     0.000000000000    34.968852682000
         N           -0.000000190144    -2.151353900463     0.000000000000    14.003074004430
         H           -0.473180190144    -2.510363900463     0.819580000000     1.007825032230
         H           -0.473180190144    -2.510363900463    -0.819580000000     1.007825032230
         H            0.946369809856    -2.510363900463     0.000000000000     1.007825032230

  Running in c1 symmetry.

  Rotational constants: A =      6.22544  B =      0.13324  C =      0.13324 [cm^-1]
  Rotational constants: A = 186633.95025  B =   3994.31046  C =   3994.31020 [MHz]
  Nuclear repulsion =   11.947542838505761

  Charge       = 0
  Multiplicity = 1
  Electrons    = 10
  Nalpha       = 5
  Nbeta        = 5

  ==> Algorithm <==

  SCF Algorithm Type is DF.
  DIIS enabled.
  MOM disabled.
  Fractional occupation disabled.
  Guess Type is SAD.
  Energy threshold   = 1.00e-08
  Density threshold  = 1.00e-08
  Integral threshold = 1.00e-12

  ==> Primary Basis <==

  Basis Set: THIS_BASIS
    Blend: AUG-CC-PVQZ
    Number of shells: 98
    Number of basis functions: 348
    Number of Cartesian functions: 434
    Spherical Harmonics?: true
    Max angular momentum: 4

   => Loading Basis Set <=

    Name: (THIS_BASIS AUX)
    Role: JKFIT
    Keyword: DF_BASIS_SCF
    atoms 1, 4-6 entry H          line    70 file /home/vance/anaconda3/envs/p4env/share/psi4/basis/aug-cc-pvqz-jkfit.gbs 
    atoms 2      entry CL         line   904 file /home/vance/anaconda3/envs/p4env/share/psi4/basis/aug-cc-pvqz-jkfit.gbs 
    atoms 3      entry N          line   248 file /home/vance/anaconda3/envs/p4env/share/psi4/basis/aug-cc-pvqz-jkfit.gbs 

  ==> Integral Setup <==

  ==> DiskDFJK: Density-Fitted J/K Matrices <==

    J tasked:                  Yes
    K tasked:                  Yes
    wK tasked:                  No
    OpenMP threads:              4
    Integrals threads:           4
    Memory [MiB]:             5722
    Algorithm:                Core
    Integral Cache:           SAVE
    Schwarz Cutoff:          1E-12
    Fitting Condition:       1E-10

   => Auxiliary Basis Set <=

  Basis Set: (THIS_BASIS AUX)
    Blend: AUG-CC-PVQZ-JKFIT
    Number of shells: 152
    Number of basis functions: 630
    Number of Cartesian functions: 849
    Spherical Harmonics?: true
    Max angular momentum: 5

  Minimum eigenvalue in the overlap matrix is 1.3916260284E-05.
  Reciprocal condition number of the overlap matrix is 1.1989806295E-06.
    Using symmetric orthogonalization.

  ==> Pre-Iterations <==

  SCF Guess: Superposition of Atomic Densities via on-the-fly atomic UHF (no occupation information).

   -------------------------
    Irrep   Nso     Nmo    
   -------------------------
     A        348     348 
   -------------------------
    Total     348     348
   -------------------------

  ==> Iterations <==

                           Total Energy        Delta E     RMS |[F,P]|

   @DF-RHF iter SAD:   -55.64205533518735   -5.56421e+01   0.00000e+00 
   @DF-RHF iter   1:   -56.12627908654589   -4.84224e-01   1.34284e-03 DIIS/ADIIS
   @DF-RHF iter   2:   -56.19508315918892   -6.88041e-02   7.78512e-04 DIIS/ADIIS
   @DF-RHF iter   3:   -56.22332778945507   -2.82446e-02   7.07500e-05 DIIS
   @DF-RHF iter   4:   -56.22396457116008   -6.36782e-04   1.32161e-05 DIIS
   @DF-RHF iter   5:   -56.22398578287718   -2.12117e-05   2.45487e-06 DIIS
   @DF-RHF iter   6:   -56.22398702332738   -1.24045e-06   6.41465e-07 DIIS
   @DF-RHF iter   7:   -56.22398710828209   -8.49547e-08   1.41466e-07 DIIS
   @DF-RHF iter   8:   -56.22398711261459   -4.33251e-09   2.10169e-08 DIIS
   @DF-RHF iter   9:   -56.22398711270964   -9.50422e-11   5.62456e-09 DIIS
  Energy and wave function converged.


  ==> Post-Iterations <==

    Orbital Energies [Eh]
    ---------------------

    Doubly Occupied:                                                      

       1A    -15.539185     2A     -1.139720     3A     -0.630908  
       4A     -0.630906     5A     -0.425447  

    Virtual:                                                              

       6A      0.025272     7A      0.041463     8A      0.043372  
       9A      0.043373    10A      0.095867    11A      0.095867  
      12A      0.100599    13A      0.117776    14A      0.134821  
      15A      0.138526    16A      0.138526    17A      0.147252  
      18A      0.182026    19A      0.182026    20A      0.210471  
      21A      0.210471    22A      0.267684    23A      0.283116  
      24A      0.290927    25A      0.295940    26A      0.295940  
      27A      0.303673    28A      0.303673    29A      0.320117  
      30A      0.324501    31A      0.324501    32A      0.330775  
      33A      0.354607    34A      0.367347    35A      0.367347  
      36A      0.394170    37A      0.394171    38A      0.396586  
      39A      0.444878    40A      0.444878    41A      0.466792  
      42A      0.473232    43A      0.473232    44A      0.546905  
      45A      0.546906    46A      0.555708    47A      0.563446  
      48A      0.563446    49A      0.597128    50A      0.630207  
      51A      0.698797    52A      0.716784    53A      0.730341  
      54A      0.730341    55A      0.731267    56A      0.743810  
      57A      0.757579    58A      0.757580    59A      0.785142  
      60A      0.790409    61A      0.790410    62A      0.811290  
      63A      0.811290    64A      0.844420    65A      0.844421  
      66A      0.867404    67A      0.877652    68A      0.878399  
      69A      0.878400    70A      0.920021    71A      0.920021  
      72A      0.926310    73A      0.967568    74A      0.969643  
      75A      0.969643    76A      1.009599    77A      1.009599  
      78A      1.026855    79A      1.034464    80A      1.034464  
      81A      1.069606    82A      1.071247    83A      1.071248  
      84A      1.100223    85A      1.100224    86A      1.139368  
      87A      1.154380    88A      1.161575    89A      1.161575  
      90A      1.321738    91A      1.356638    92A      1.356639  
      93A      1.372698    94A      1.372699    95A      1.372934  
      96A      1.413533    97A      1.439363    98A      1.452323  
      99A      1.452324   100A      1.474500   101A      1.495404  
     102A      1.558195   103A      1.558196   104A      1.593651  
     105A      1.604626   106A      1.604627   107A      1.691147  
     108A      1.691148   109A      1.699634   110A      1.738341  
     111A      1.738341   112A      1.738735   113A      1.739259  
     114A      1.790496   115A      1.790497   116A      1.810693  
     117A      1.858889   118A      1.858890   119A      1.907726  
     120A      1.912231   121A      1.912233   122A      1.950843  
     123A      1.954604   124A      1.954604   125A      1.966555  
     126A      1.988255   127A      1.988255   128A      2.059835  
     129A      2.088083   130A      2.088083   131A      2.104630  
     132A      2.123717   133A      2.123718   134A      2.178985  
     135A      2.217708   136A      2.217709   137A      2.226026  
     138A      2.226026   139A      2.233644   140A      2.248858  
     141A      2.275231   142A      2.275231   143A      2.338650  
     144A      2.355286   145A      2.355286   146A      2.359801  
     147A      2.390478   148A      2.444515   149A      2.444778  
     150A      2.444778   151A      2.474555   152A      2.474555  
     153A      2.477082   154A      2.494980   155A      2.525529  
     156A      2.525529   157A      2.532234   158A      2.672080  
     159A      2.682331   160A      2.682332   161A      2.713134  
     162A      2.713136   163A      2.912264   164A      2.912265  
     165A      2.934554   166A      2.939458   167A      2.939458  
     168A      2.965605   169A      2.965607   170A      2.978903  
     171A      3.015527   172A      3.066067   173A      3.066067  
     174A      3.082313   175A      3.082317   176A      3.083479  
     177A      3.122280   178A      3.166793   179A      3.225627  
     180A      3.225627   181A      3.272796   182A      3.308978  
     183A      3.308980   184A      3.333565   185A      3.333566  
     186A      3.409767   187A      3.480852   188A      3.480852  
     189A      3.531838   190A      3.531838   191A      3.549093  
     192A      3.627678   193A      3.627679   194A      3.697971  
     195A      3.703328   196A      3.722461   197A      3.722461  
     198A      3.882862   199A      3.941339   200A      3.941339  
     201A      4.083724   202A      4.117093   203A      4.135889  
     204A      4.135893   205A      4.231901   206A      4.237620  
     207A      4.252387   208A      4.252388   209A      4.332435  
     210A      4.332436   211A      4.387358   212A      4.486367  
     213A      4.486368   214A      4.596836   215A      4.668635  
     216A      4.668639   217A      4.855837   218A      4.855837  
     219A      4.973728   220A      5.012870   221A      5.012870  
     222A      5.160429   223A      5.203013   224A      5.235575  
     225A      5.235577   226A      5.422324   227A      5.422324  
     228A      5.432156   229A      5.432156   230A      5.460636  
     231A      5.466279   232A      5.484335   233A      5.586594  
     234A      5.586595   235A      5.731657   236A      5.961192  
     237A      5.961193   238A      6.087978   239A      6.265128  
     240A      6.266775   241A      6.269235   242A      6.269235  
     243A      6.361874   244A      6.361874   245A      6.747640  
     246A      6.878027   247A      6.934824   248A      6.934826  
     249A      6.994252   250A      6.994255   251A      7.002483  
     252A      7.014430   253A      7.369857   254A      7.372904  
     255A      7.436923   256A      7.436926   257A      7.501119  
     258A      7.501120   259A      7.640495   260A      7.640496  
     261A      7.670021   262A      7.675541   263A      7.675542  
     264A      7.694558   265A      7.780222   266A      7.792753  
     267A      7.792754   268A      7.812924   269A      7.812931  
     270A      7.992552   271A      7.992556   272A      8.091587  
     273A      8.091588   274A      8.123429   275A      8.207727  
     276A      8.207728   277A      8.332770   278A      8.453140  
     279A      8.453894   280A      8.453896   281A      8.606606  
     282A      8.620846   283A      8.620849   284A      8.664946  
     285A      8.772745   286A      8.772747   287A      8.887342  
     288A      8.887342   289A      8.918640   290A      8.918643  
     291A      8.975021   292A      8.985316   293A      9.043230  
     294A      9.081655   295A      9.150449   296A      9.166824  
     297A      9.166827   298A      9.331956   299A      9.331956  
     300A      9.367331   301A      9.367337   302A      9.487575  
     303A      9.487576   304A      9.563978   305A      9.639434  
     306A      9.688428   307A      9.688432   308A      9.748993  
     309A      9.820257   310A      9.820259   311A      9.923225  
     312A      9.989222   313A      9.989228   314A     10.123224  
     315A     10.123226   316A     10.155098   317A     10.275551  
     318A     10.275553   319A     10.438002   320A     10.438005  
     321A     10.512304   322A     10.593357   323A     10.593362  
     324A     10.657461   325A     10.881032   326A     11.046511  
     327A     11.046514   328A     11.064182   329A     11.361632  
     330A     11.948179   331A     12.219357   332A     12.219365  
     333A     12.315456   334A     12.381197   335A     12.381212  
     336A     13.072475   337A     13.178684   338A     13.178694  
     339A     13.382495   340A     14.940810   341A     15.123204  
     342A     15.123216   343A     31.108966   344A     31.108967  
     345A     31.400898   346A     36.823277   347A     43.032046  
     348A    160.412110  

    Final Occupation by Irrep:
              A 
    DOCC [     5 ]
    NA   [     5 ]
    NB   [     5 ]

  @DF-RHF Final Energy:   -56.22398711270964

   => Energetics <=

    Nuclear Repulsion Energy =             11.9475428385057612
    One-Electron Energy =                 -99.6107251235829949
    Two-Electron Energy =                  31.4391951723675938
    Total Energy =                        -56.2239871127096364

Computation Completed


Properties will be evaluated at   0.000000,   0.000000,   0.000000 [a0]

Properties computed using the SCF density matrix


 Multipole Moments:

 ------------------------------------------------------------------------------------
     Multipole            Electronic (a.u.)      Nuclear  (a.u.)        Total (a.u.)
 ------------------------------------------------------------------------------------

 L = 1.  Multiply by 2.5417464519 to convert [e a0] to [Debye]
 Dipole X            :         -0.0000127            0.0000153            0.0000026
 Dipole Y            :         42.0835443          -42.6899884           -0.6064442
 Dipole Z            :         -0.0000000            0.0000000           -0.0000000
 Magnitude           :                                                    0.6064442

 ------------------------------------------------------------------------------------

*** tstop() called on cmpsrv002 at Tue Sep 17 13:36:05 2024
Module time:
	user time   =      28.23 seconds =       0.47 minutes
	system time =       2.59 seconds =       0.04 minutes
	total time  =         23 seconds =       0.38 minutes
Total time:
	user time   =      64.59 seconds =       1.08 minutes
	system time =       6.30 seconds =       0.11 minutes
	total time  =         34 seconds =       0.57 minutes

         ---------------------------------------------------------
                        SAPT(DFT): delta HF Segment                

                   by Daniel G. A. Smith and Rob Parrish           
         ---------------------------------------------------------


  ==> Preparing SAPT Data Cache <== 

  ==> DiskDFJK: Density-Fitted J/K Matrices <==

    J tasked:                  Yes
    K tasked:                  Yes
    wK tasked:                  No
    OpenMP threads:              4
    Integrals threads:           4
    Memory [MiB]:             5722
    Algorithm:                Core
    Integral Cache:           SAVE
    Schwarz Cutoff:          1E-12
    Fitting Condition:       1E-10

   => Auxiliary Basis Set <=

  Basis Set: (THIS_BASIS AUX)
    Blend: AUG-CC-PVQZ-JKFIT
    Number of shells: 152
    Number of basis functions: 630
    Number of Cartesian functions: 849
    Spherical Harmonics?: true
    Max angular momentum: 5


  ==> E10 Electostatics <== 

    Elst10,r                        -24.35923882 [mEh]

  ==> E10 Exchange <== 

    Exch10(S^2)                      25.98731194 [mEh]
    Exch10                           26.53813176 [mEh]

  ==> E20 Induction <== 

   => Uncoupled Induction <= 

    Ind20,u (A<-B)                   -3.16835830 [mEh]
    Ind20,u (A->B)                   -7.79568261 [mEh]
    Ind20,u                         -10.96404091 [mEh]
    Exch-Ind20,u (A<-B)               1.69416775 [mEh]
    Exch-Ind20,u (A->B)               4.22604639 [mEh]
    Exch-Ind20,u                      5.92021414 [mEh]
    Exch-Ind20,u (A<-B) (S^inf)       1.77103609 [mEh]
    Exch-Ind20,u (A->B) (S^inf)       4.46345032 [mEh]
    Exch-Ind20,u (S^inf)              6.23448641 [mEh]

   => Coupled Induction <= 

   ---------------------------------------------------
              SAPT Coupled Induction Solver           
   ---------------------------------------------------
    Maxiter             =          20
    Convergence         =   1.000E-06
   ---------------------------------------------------
     Iter       (A<-B)           (B->A)      Time [s]
   ---------------------------------------------------
    Guess    1.427106e-01     1.680568e-01          1
        1    4.495014e-02     5.381965e-02          3
        2    7.736628e-03     1.532642e-02          5
        3    2.703306e-03     4.271377e-03          8
        4    5.353928e-04     8.428551e-04         11
        5    7.051535e-05     1.371560e-04         14
        6    1.310281e-05     2.075061e-05         17
        7    2.634778e-06     3.895299e-06         19
        8    3.287386e-07*    9.688548e-07*        23
   ---------------------------------------------------

    Ind20,r (A<-B)                   -3.52749579 [mEh]
    Ind20,r (A->B)                  -10.04872013 [mEh]
    Ind20,r                         -13.57621592 [mEh]
    Exch-Ind20,r (A<-B)               1.93167838 [mEh]
    Exch-Ind20,r (A->B)               5.79367993 [mEh]
    Exch-Ind20,r                      7.72535831 [mEh]
    Exch-Ind20,r (A<-B) (S^inf)       2.02006174 [mEh]
    Exch-Ind20,r (A->B) (S^inf)       6.12793475 [mEh]
    Exch-Ind20,r (S^inf)              8.14799649 [mEh]

   Partial SAPT(HF) Results, to compute Delta HF (dHF)
  ---------------------------------------------------------------------------------------------------------
    Electrostatics                  -24.35923882 [mEh]    -15.28565313 [kcal/mol]    -63.95517271 [kJ/mol]
      Elst10,r                      -24.35923882 [mEh]    -15.28565313 [kcal/mol]    -63.95517271 [kJ/mol]

    Exchange                         26.53813176 [mEh]     16.65292910 [kcal/mol]     69.67585534 [kJ/mol]
      Exch10                         26.53813176 [mEh]     16.65292910 [kcal/mol]     69.67585534 [kJ/mol]
      Exch10(S^2)                    25.98731194 [mEh]     16.30728444 [kcal/mol]     68.22967809 [kJ/mol]

    Induction (no dHF)               -5.85085761 [mEh]     -3.67146858 [kcal/mol]    -15.36142453 [kJ/mol]
      Ind20,r                       -13.57621592 [mEh]     -8.51920411 [kcal/mol]    -35.64434999 [kJ/mol]
      Exch-Ind20,r                    7.72535831 [mEh]      4.84773553 [kcal/mol]     20.28292546 [kJ/mol]
      Induction (A<-B) (no dHF)      -1.59581741 [mEh]     -1.00139054 [kcal/mol]     -4.18981803 [kJ/mol]
      Induction (A->B) (no dHF)      -4.25504020 [mEh]     -2.67007804 [kcal/mol]    -11.17160650 [kJ/mol]

    Subtotal SAPT(HF)                -3.67196467 [mEh]     -2.30419262 [kcal/mol]     -9.64074190 [kJ/mol]
    Total HF                        -10.38038503 [mEh]     -6.51378995 [kcal/mol]    -27.25369714 [kJ/mol]
    Delta HF                         -6.70842036 [mEh]     -4.20959733 [kcal/mol]    -17.61295524 [kJ/mol]
  ---------------------------------------------------------------------------------------------------------
   Partial SAPT(HF) Results, alternate SAPT0-like display
  ---------------------------------------------------------------------------------------------------------
    Induction                       -12.55927797 [mEh]     -7.88106591 [kcal/mol]    -32.97437976 [kJ/mol]
      Ind20,r                       -13.57621592 [mEh]     -8.51920411 [kcal/mol]    -35.64434999 [kJ/mol]
      Exch-Ind20,r                    7.72535831 [mEh]      4.84773553 [kcal/mol]     20.28292546 [kJ/mol]
      delta HF,r (2)                 -6.70842036 [mEh]     -4.20959733 [kcal/mol]    -17.61295524 [kJ/mol]
      Induction (A<-B)               -3.42553447 [mEh]     -2.14955533 [kcal/mol]     -8.99373951 [kJ/mol]
      Induction (A->B)               -9.13374350 [mEh]     -5.73151058 [kcal/mol]    -23.98064025 [kJ/mol]
  ---------------------------------------------------------------------------------------------------------
   => Libint2 <=

    Primary   basis highest AM E, G, H:  6, 6, 3
    Auxiliary basis highest AM E, G, H:  7, 7, 4
    Onebody   basis highest AM E, G, H:  -, -, -
    Solid Harmonics ordering:            Gaussian

*** tstart() called on cmpsrv002
*** at Tue Sep 17 13:36:45 2024

   => Loading Basis Set <=

    Name: THIS_BASIS
    Role: ORBITAL
    Keyword: BASIS
    atoms 1, 4-6 entry H          line    40 file /home/vance/anaconda3/envs/p4env/share/psi4/basis/aug-cc-pvqz.gbs 
    atoms 2      entry CL         line  1222 file /home/vance/anaconda3/envs/p4env/share/psi4/basis/aug-cc-pvqz.gbs 
    atoms 3      entry N          line   363 file /home/vance/anaconda3/envs/p4env/share/psi4/basis/aug-cc-pvqz.gbs 


         ---------------------------------------------------------
                          SAPT(DFT): DFT Monomer A                 
         ---------------------------------------------------------
                                   SCF
               by Justin Turney, Rob Parrish, Andy Simmonett
                          and Daniel G. A. Smith
                              RKS Reference
                        4 Threads,   7629 MiB Core
         ---------------------------------------------------------

  ==> Geometry <==

    Molecular point group: c1
    Full point group: Cs

    Geometry (in Angstrom), charge = 0, multiplicity = 1:

       Center              X                  Y                   Z               Mass       
    ------------   -----------------  -----------------  -----------------  -----------------
         H           -0.000000190144    -0.257383900463     0.000000000000     1.007825032230
         CL          -0.000000190144     1.085966099537     0.000000000000    34.968852682000
      Gh(N)          -0.000000190144    -2.151353900463     0.000000000000    14.003074004430
      Gh(H)          -0.473180190144    -2.510363900463     0.819580000000     1.007825032230
      Gh(H)          -0.473180190144    -2.510363900463    -0.819580000000     1.007825032230
      Gh(H)           0.946369809856    -2.510363900463     0.000000000000     1.007825032230

  Running in c1 symmetry.

  Rotational constants: A =      6.22544  B =      0.13324  C =      0.13324 [cm^-1]
  Rotational constants: A = 186633.95025  B =   3994.31046  C =   3994.31020 [MHz]
  Nuclear repulsion =    6.696700473733578

  Charge       = 0
  Multiplicity = 1
  Electrons    = 18
  Nalpha       = 9
  Nbeta        = 9

  ==> Algorithm <==

  SCF Algorithm Type is DF.
  DIIS enabled.
  MOM disabled.
  Fractional occupation disabled.
  Guess Type is SAD.
  Energy threshold   = 1.00e-08
  Density threshold  = 1.00e-08
  Integral threshold = 1.00e-12

  ==> Primary Basis <==

  Basis Set: THIS_BASIS
    Blend: AUG-CC-PVQZ
    Number of shells: 98
    Number of basis functions: 348
    Number of Cartesian functions: 434
    Spherical Harmonics?: true
    Max angular momentum: 4

  ==> DFT Potential <==

   => LibXC <=

    Version 6.2.2
    S. Lehtola, C. Steigemann, M. J.T. Oliveira, and M. A.L. Marques.,  SoftwareX 7, 15 (2018) (10.1016/j.softx.2017.11.002)

   => Composite Functional: PBE0 <= 

    PBE0 Hyb-GGA Exchange-Correlation Functional

    C. Adamo and V. Barone.,  J. Chem. Phys. 110, 6158 (1999) (10.1063/1.478522)
    M. Ernzerhof and G. E. Scuseria.,  J. Chem. Phys. 110, 5029 (1999) (10.1063/1.478401)

    Deriv               =              1
    GGA                 =           TRUE
    Meta                =          FALSE

    Exchange Hybrid     =           TRUE
    MP2 Hybrid          =          FALSE

   => Exchange Functionals <=

    0.7500   Perdew, Burke & Ernzerhof

   => Exact (HF) Exchange <=

    0.2500               HF 

   => Correlation Functionals <=

    1.0000   Perdew, Burke & Ernzerhof

   => LibXC Density Thresholds  <==

    XC_HYB_GGA_XC_PBEH:  1.00E-15 

   => Asymptotic Correction <=

    X Functional        =    XC_GGA_X_LB
    C Functional        =   XC_LDA_C_VWN
    Bulk Shift          =       0.116251
    GRAC Alpha          =       0.500000
    GRAC Beta           =      40.000000

   => Molecular Quadrature <=

    Radial Scheme          =       TREUTLER
    Pruning Scheme         =           NONE
    Nuclear Scheme         =       TREUTLER

    Blocking Scheme        =         OCTREE
    BS radius alpha        =              1
    Pruning alpha          =              1
    Radial Points          =             75
    Spherical Points       =            302
    Total Points           =         131978
    Total Blocks           =           1050
    Max Points             =            256
    Max Functions          =            348
    Weights Tolerance      =       1.00E-15

   => Loading Basis Set <=

    Name: (THIS_BASIS AUX)
    Role: JKFIT
    Keyword: DF_BASIS_SCF
    atoms 1, 4-6 entry H          line    70 file /home/vance/anaconda3/envs/p4env/share/psi4/basis/aug-cc-pvqz-jkfit.gbs 
    atoms 2      entry CL         line   904 file /home/vance/anaconda3/envs/p4env/share/psi4/basis/aug-cc-pvqz-jkfit.gbs 
    atoms 3      entry N          line   248 file /home/vance/anaconda3/envs/p4env/share/psi4/basis/aug-cc-pvqz-jkfit.gbs 

  ==> Integral Setup <==

  ==> DiskDFJK: Density-Fitted J/K Matrices <==

    J tasked:                  Yes
    K tasked:                  Yes
    wK tasked:                  No
    OpenMP threads:              4
    Integrals threads:           4
    Memory [MiB]:             4566
    Algorithm:                Core
    Integral Cache:           SAVE
    Schwarz Cutoff:          1E-12
    Fitting Condition:       1E-10

   => Auxiliary Basis Set <=

  Basis Set: (THIS_BASIS AUX)
    Blend: AUG-CC-PVQZ-JKFIT
    Number of shells: 152
    Number of basis functions: 630
    Number of Cartesian functions: 849
    Spherical Harmonics?: true
    Max angular momentum: 5

  Cached 100.0% of DFT collocation blocks in 1.128 [GiB].

  Minimum eigenvalue in the overlap matrix is 1.3916260284E-05.
  Reciprocal condition number of the overlap matrix is 1.1989806295E-06.
    Using symmetric orthogonalization.

  ==> Pre-Iterations <==

  SCF Guess: Superposition of Atomic Densities via on-the-fly atomic UHF (no occupation information).

   -------------------------
    Irrep   Nso     Nmo    
   -------------------------
     A        348     348 
   -------------------------
    Total     348     348
   -------------------------

  ==> Iterations <==

                           Total Energy        Delta E     RMS |[F,P]|

   @DF-RKS iter SAD:  -460.52671682369709   -4.60527e+02   0.00000e+00 
   @DF-RKS iter   1:  -460.65070451134153   -1.23988e-01   7.18679e-04 DIIS/ADIIS
   @DF-RKS iter   2:  -460.65475913792261   -4.05463e-03   6.34091e-04 DIIS/ADIIS
   @DF-RKS iter   3:  -460.67484049675187   -2.00814e-02   5.19542e-05 DIIS
   @DF-RKS iter   4:  -460.67502143914999   -1.80942e-04   8.04150e-06 DIIS
   @DF-RKS iter   5:  -460.67502665604053   -5.21689e-06   1.21738e-06 DIIS
   @DF-RKS iter   6:  -460.67502632837898    3.27662e-07   4.35371e-08 DIIS
   @DF-RKS iter   7:  -460.67502633500709   -6.62811e-09   3.07550e-09 DIIS
  Energy and wave function converged.


  ==> Post-Iterations <==

   Electrons on quadrature grid:
      Ntotal   =   17.9999999109 ; deviation = -8.908e-08 

    Orbital Energies [Eh]
    ---------------------

    Doubly Occupied:                                                      

       1A   -101.863028     2A     -9.665179     3A     -7.400768  
       4A     -7.392309     5A     -7.392309     6A     -0.976120  
       7A     -0.595521     8A     -0.463156     9A     -0.463156  

    Virtual:                                                              

      10A     -0.133293    11A     -0.063686    12A     -0.047431  
      13A     -0.041296    14A     -0.041291    15A     -0.009328  
      16A     -0.004859    17A     -0.004846    18A      0.021471  
      19A      0.021478    20A      0.036306    21A      0.044553  
      22A      0.058439    23A      0.058451    24A      0.068918  
      25A      0.093495    26A      0.093504    27A      0.117918  
      28A      0.117934    29A      0.142455    30A      0.163447  
      31A      0.163447    32A      0.176411    33A      0.183917  
      34A      0.183929    35A      0.199307    36A      0.200213  
      37A      0.212616    38A      0.212622    39A      0.234661  
      40A      0.265216    41A      0.296263    42A      0.296295  
      43A      0.297862    44A      0.310084    45A      0.310111  
      46A      0.345516    47A      0.345531    48A      0.372239  
      49A      0.394789    50A      0.394790    51A      0.407011  
      52A      0.437401    53A      0.437413    54A      0.457274  
      55A      0.457287    56A      0.468269    57A      0.484243  
      58A      0.502464    59A      0.502478    60A      0.533308  
      61A      0.533312    62A      0.571283    63A      0.574887  
      64A      0.595219    65A      0.595223    66A      0.602049  
      67A      0.616321    68A      0.616322    69A      0.626498  
      70A      0.631784    71A      0.667113    72A      0.707725  
      73A      0.745082    74A      0.745093    75A      0.759921  
      76A      0.759929    77A      0.770095    78A      0.770107  
      79A      0.771236    80A      0.829651    81A      0.829703  
      82A      0.846084    83A      0.861950    84A      0.861956  
      85A      0.891233    86A      0.903906    87A      0.903912  
      88A      0.944149    89A      0.961601    90A      0.961603  
      91A      0.991385    92A      1.019660    93A      1.066872  
      94A      1.066876    95A      1.087991    96A      1.134518  
      97A      1.134523    98A      1.162543    99A      1.162543  
     100A      1.232696   101A      1.247020   102A      1.259496  
     103A      1.259519   104A      1.363450   105A      1.363453  
     106A      1.385803   107A      1.398452   108A      1.401379  
     109A      1.410761   110A      1.410762   111A      1.421791  
     112A      1.441870   113A      1.441870   114A      1.494683  
     115A      1.513730   116A      1.527849   117A      1.527852  
     118A      1.558081   119A      1.558081   120A      1.600125  
     121A      1.600129   122A      1.643421   123A      1.643426  
     124A      1.669703   125A      1.692607   126A      1.693068  
     127A      1.693069   128A      1.698002   129A      1.714986  
     130A      1.735625   131A      1.735633   132A      1.741749  
     133A      1.757608   134A      1.779889   135A      1.791249  
     136A      1.791260   137A      1.828359   138A      1.828370  
     139A      1.903714   140A      1.903717   141A      1.922195  
     142A      1.922196   143A      1.926259   144A      1.938484  
     145A      1.966153   146A      1.992320   147A      1.992330  
     148A      2.037747   149A      2.038961   150A      2.038962  
     151A      2.075464   152A      2.075480   153A      2.080304  
     154A      2.106672   155A      2.147634   156A      2.147648  
     157A      2.160102   158A      2.160105   159A      2.173695  
     160A      2.238693   161A      2.238705   162A      2.269802  
     163A      2.345829   164A      2.379640   165A      2.379646  
     166A      2.405229   167A      2.467806   168A      2.467807  
     169A      2.523733   170A      2.565233   171A      2.565256  
     172A      2.666643   173A      2.808221   174A      2.808227  
     175A      2.910701   176A      2.910724   177A      2.919569  
     178A      2.969496   179A      2.969505   180A      3.039587  
     181A      3.057002   182A      3.125959   183A      3.148748  
     184A      3.148757   185A      3.167374   186A      3.167376  
     187A      3.195077   188A      3.272765   189A      3.298247  
     190A      3.298252   191A      3.352628   192A      3.352630  
     193A      3.381852   194A      3.404457   195A      3.404462  
     196A      3.495605   197A      3.554650   198A      3.554653  
     199A      3.620893   200A      3.682882   201A      3.728047  
     202A      3.728048   203A      3.791086   204A      3.858025  
     205A      3.858027   206A      3.882772   207A      3.882773  
     208A      3.976556   209A      4.015000   210A      4.015003  
     211A      4.099646   212A      4.099653   213A      4.199531  
     214A      4.199531   215A      4.205353   216A      4.210497  
     217A      4.217512   218A      4.242525   219A      4.252359  
     220A      4.252359   221A      4.252757   222A      4.264756  
     223A      4.264759   224A      4.281449   225A      4.285881  
     226A      4.287150   227A      4.287150   228A      4.379928  
     229A      4.384702   230A      4.384707   231A      4.480527  
     232A      4.531538   233A      4.531539   234A      4.567349  
     235A      4.567352   236A      4.672821   237A      4.672822  
     238A      4.802199   239A      4.907962   240A      5.133865  
     241A      5.174396   242A      5.174400   243A      5.363897  
     244A      5.363902   245A      5.554380   246A      5.660556  
     247A      5.660561   248A      5.711715   249A      5.813772  
     250A      5.813777   251A      5.980790   252A      6.130268  
     253A      6.130269   254A      6.246945   255A      6.255032  
     256A      6.267061   257A      6.435782   258A      6.435785  
     259A      6.716637   260A      6.716645   261A      6.970020  
     262A      6.994073   263A      7.016922   264A      7.016926  
     265A      7.137250   266A      7.137252   267A      7.302837  
     268A      7.302838   269A      7.462888   270A      7.661672  
     271A      7.828120   272A      8.057243   273A      8.057250  
     274A      8.061696   275A      8.070104   276A      8.070108  
     277A      8.169782   278A      8.169797   279A      8.213138  
     280A      8.237123   281A      8.237180   282A      8.309532  
     283A      8.309537   284A      8.345929   285A      8.410288  
     286A      8.410290   287A      8.587557   288A      8.587563  
     289A      8.639697   290A      8.769096   291A      8.925311  
     292A      8.925321   293A      9.067765   294A      9.104074  
     295A      9.104079   296A      9.136778   297A      9.136788  
     298A      9.192728   299A      9.331847   300A      9.331862  
     301A      9.391122   302A      9.434401   303A      9.455096  
     304A      9.511398   305A      9.511398   306A      9.647827  
     307A      9.810782   308A      9.967155   309A      9.967158  
     310A     10.055129   311A     10.055139   312A     10.347146  
     313A     10.382213   314A     10.382227   315A     10.416319  
     316A     10.593354   317A     10.593364   318A     10.606173  
     319A     10.695247   320A     10.695248   321A     10.779209  
     322A     11.215134   323A     11.215134   324A     11.216576  
     325A     11.863422   326A     11.863433   327A     11.980631  
     328A     12.181181   329A     12.412017   330A     12.412031  
     331A     13.040706   332A     13.040715   333A     13.249594  
     334A     13.890022   335A     14.177114   336A     14.364776  
     337A     14.364788   338A     14.545860   339A     14.545864  
     340A     15.915662   341A     15.915669   342A     16.234307  
     343A     18.171473   344A     19.712859   345A     21.721964  
     346A     21.722001   347A     25.583456   348A     96.274660  

    Final Occupation by Irrep:
              A 
    DOCC [     9 ]
    NA   [     9 ]
    NB   [     9 ]

  @DF-RKS Final Energy:  -460.67502633500709

   => Energetics <=

    Nuclear Repulsion Energy =              6.6967004737335785
    One-Electron Energy =                -649.2512628998022137
    Two-Electron Energy =                 203.3313078956787479
    DFT Exchange-Correlation Energy =     -21.4517718046171701
    Empirical Dispersion Energy =           0.0000000000000000
    VV10 Nonlocal Energy =                  0.0000000000000000
    Total Energy =                       -460.6750263350070895

Computation Completed


Properties will be evaluated at   0.000000,   0.000000,   0.000000 [a0]

Properties computed using the SCF density matrix


 Multipole Moments:

 ------------------------------------------------------------------------------------
     Multipole            Electronic (a.u.)      Nuclear  (a.u.)        Total (a.u.)
 ------------------------------------------------------------------------------------

 L = 1.  Multiply by 2.5417464519 to convert [e a0] to [Debye]
 Dipole X            :          0.0000108           -0.0000065            0.0000043
 Dipole Y            :        -34.8705896           34.4006496           -0.4699400
 Dipole Z            :          0.0000000            0.0000000            0.0000000
 Magnitude           :                                                    0.4699400

 ------------------------------------------------------------------------------------

*** tstop() called on cmpsrv002 at Tue Sep 17 13:37:33 2024
Module time:
	user time   =      41.15 seconds =       0.69 minutes
	system time =       2.82 seconds =       0.05 minutes
	total time  =         48 seconds =       0.80 minutes
Total time:
	user time   =     208.25 seconds =       3.47 minutes
	system time =      10.47 seconds =       0.17 minutes
	total time  =        122 seconds =       2.03 minutes
   => Libint2 <=

    Primary   basis highest AM E, G, H:  6, 6, 3
    Auxiliary basis highest AM E, G, H:  7, 7, 4
    Onebody   basis highest AM E, G, H:  -, -, -
    Solid Harmonics ordering:            Gaussian

*** tstart() called on cmpsrv002
*** at Tue Sep 17 13:37:33 2024

   => Loading Basis Set <=

    Name: THIS_BASIS
    Role: ORBITAL
    Keyword: BASIS
    atoms 1, 4-6 entry H          line    40 file /home/vance/anaconda3/envs/p4env/share/psi4/basis/aug-cc-pvqz.gbs 
    atoms 2      entry CL         line  1222 file /home/vance/anaconda3/envs/p4env/share/psi4/basis/aug-cc-pvqz.gbs 
    atoms 3      entry N          line   363 file /home/vance/anaconda3/envs/p4env/share/psi4/basis/aug-cc-pvqz.gbs 


         ---------------------------------------------------------
                          SAPT(DFT): DFT Monomer B                 
         ---------------------------------------------------------
                                   SCF
               by Justin Turney, Rob Parrish, Andy Simmonett
                          and Daniel G. A. Smith
                              RKS Reference
                        4 Threads,   7629 MiB Core
         ---------------------------------------------------------

  ==> Geometry <==

    Molecular point group: c1
    Full point group: Cs

    Geometry (in Angstrom), charge = 0, multiplicity = 1:

       Center              X                  Y                   Z               Mass       
    ------------   -----------------  -----------------  -----------------  -----------------
      Gh(H)          -0.000000190144    -0.257383900463     0.000000000000     1.007825032230
      Gh(CL)         -0.000000190144     1.085966099537     0.000000000000    34.968852682000
         N           -0.000000190144    -2.151353900463     0.000000000000    14.003074004430
         H           -0.473180190144    -2.510363900463     0.819580000000     1.007825032230
         H           -0.473180190144    -2.510363900463    -0.819580000000     1.007825032230
         H            0.946369809856    -2.510363900463     0.000000000000     1.007825032230

  Running in c1 symmetry.

  Rotational constants: A =      6.22544  B =      0.13324  C =      0.13324 [cm^-1]
  Rotational constants: A = 186633.95025  B =   3994.31046  C =   3994.31020 [MHz]
  Nuclear repulsion =   11.947542838505761

  Charge       = 0
  Multiplicity = 1
  Electrons    = 10
  Nalpha       = 5
  Nbeta        = 5

  ==> Algorithm <==

  SCF Algorithm Type is DF.
  DIIS enabled.
  MOM disabled.
  Fractional occupation disabled.
  Guess Type is SAD.
  Energy threshold   = 1.00e-08
  Density threshold  = 1.00e-08
  Integral threshold = 1.00e-12

  ==> Primary Basis <==

  Basis Set: THIS_BASIS
    Blend: AUG-CC-PVQZ
    Number of shells: 98
    Number of basis functions: 348
    Number of Cartesian functions: 434
    Spherical Harmonics?: true
    Max angular momentum: 4

  ==> DFT Potential <==

   => LibXC <=

    Version 6.2.2
    S. Lehtola, C. Steigemann, M. J.T. Oliveira, and M. A.L. Marques.,  SoftwareX 7, 15 (2018) (10.1016/j.softx.2017.11.002)

   => Composite Functional: PBE0 <= 

    PBE0 Hyb-GGA Exchange-Correlation Functional

    C. Adamo and V. Barone.,  J. Chem. Phys. 110, 6158 (1999) (10.1063/1.478522)
    M. Ernzerhof and G. E. Scuseria.,  J. Chem. Phys. 110, 5029 (1999) (10.1063/1.478401)

    Deriv               =              1
    GGA                 =           TRUE
    Meta                =          FALSE

    Exchange Hybrid     =           TRUE
    MP2 Hybrid          =          FALSE

   => Exchange Functionals <=

    0.7500   Perdew, Burke & Ernzerhof

   => Exact (HF) Exchange <=

    0.2500               HF 

   => Correlation Functionals <=

    1.0000   Perdew, Burke & Ernzerhof

   => LibXC Density Thresholds  <==

    XC_HYB_GGA_XC_PBEH:  1.00E-15 

   => Asymptotic Correction <=

    X Functional        =    XC_GGA_X_LB
    C Functional        =   XC_LDA_C_VWN
    Bulk Shift          =       0.113162
    GRAC Alpha          =       0.500000
    GRAC Beta           =      40.000000

   => Molecular Quadrature <=

    Radial Scheme          =       TREUTLER
    Pruning Scheme         =           NONE
    Nuclear Scheme         =       TREUTLER

    Blocking Scheme        =         OCTREE
    BS radius alpha        =              1
    Pruning alpha          =              1
    Radial Points          =             75
    Spherical Points       =            302
    Total Points           =         131978
    Total Blocks           =           1050
    Max Points             =            256
    Max Functions          =            348
    Weights Tolerance      =       1.00E-15

   => Loading Basis Set <=

    Name: (THIS_BASIS AUX)
    Role: JKFIT
    Keyword: DF_BASIS_SCF
    atoms 1, 4-6 entry H          line    70 file /home/vance/anaconda3/envs/p4env/share/psi4/basis/aug-cc-pvqz-jkfit.gbs 
    atoms 2      entry CL         line   904 file /home/vance/anaconda3/envs/p4env/share/psi4/basis/aug-cc-pvqz-jkfit.gbs 
    atoms 3      entry N          line   248 file /home/vance/anaconda3/envs/p4env/share/psi4/basis/aug-cc-pvqz-jkfit.gbs 

  ==> Integral Setup <==

  ==> DiskDFJK: Density-Fitted J/K Matrices <==

    J tasked:                  Yes
    K tasked:                  Yes
    wK tasked:                  No
    OpenMP threads:              4
    Integrals threads:           4
    Memory [MiB]:             4566
    Algorithm:                Core
    Integral Cache:           SAVE
    Schwarz Cutoff:          1E-12
    Fitting Condition:       1E-10

   => Auxiliary Basis Set <=

  Basis Set: (THIS_BASIS AUX)
    Blend: AUG-CC-PVQZ-JKFIT
    Number of shells: 152
    Number of basis functions: 630
    Number of Cartesian functions: 849
    Spherical Harmonics?: true
    Max angular momentum: 5

  Cached 100.0% of DFT collocation blocks in 1.128 [GiB].

  Minimum eigenvalue in the overlap matrix is 1.3916260284E-05.
  Reciprocal condition number of the overlap matrix is 1.1989806295E-06.
    Using symmetric orthogonalization.

  ==> Pre-Iterations <==

  SCF Guess: Superposition of Atomic Densities via on-the-fly atomic UHF (no occupation information).

   -------------------------
    Irrep   Nso     Nmo    
   -------------------------
     A        348     348 
   -------------------------
    Total     348     348
   -------------------------

  ==> Iterations <==

                           Total Energy        Delta E     RMS |[F,P]|

   @DF-RKS iter SAD:   -56.05945821344686   -5.60595e+01   0.00000e+00 
   @DF-RKS iter   1:   -56.27372342600864   -2.14265e-01   2.26047e-03 DIIS/ADIIS
   @DF-RKS iter   2:   -55.96849783711946    3.05226e-01   3.03950e-03 DIIS/ADIIS
   @DF-RKS iter   3:   -56.51749112886272   -5.48993e-01   1.92798e-04 DIIS/ADIIS
   @DF-RKS iter   4:   -56.51974585016326   -2.25472e-03   1.93695e-05 DIIS
   @DF-RKS iter   5:   -56.51975975255974   -1.39024e-05   4.48687e-06 DIIS
   @DF-RKS iter   6:   -56.51975949961508    2.52945e-07   1.52809e-07 DIIS
   @DF-RKS iter   7:   -56.51975942053195    7.90831e-08   2.26758e-08 DIIS
   @DF-RKS iter   8:   -56.51975940159384    1.89381e-08   3.02040e-09 DIIS
   @DF-RKS iter   9:   -56.51975940098273    6.11109e-10   3.23445e-10 DIIS
  Energy and wave function converged.


  ==> Post-Iterations <==

   Electrons on quadrature grid:
      Ntotal   =    9.9999946951 ; deviation = -5.305e-06 

    Orbital Energies [Eh]
    ---------------------

    Doubly Occupied:                                                      

       1A    -14.470532     2A     -0.988324     3A     -0.590827  
       4A     -0.590825     5A     -0.393232  

    Virtual:                                                              

       6A     -0.103638     7A     -0.053541     8A     -0.053538  
       9A     -0.039173    10A     -0.000269    11A      0.007976  
      12A      0.007981    13A      0.012055    14A      0.022491  
      15A      0.022491    16A      0.033047    17A      0.033052  
      18A      0.037778    19A      0.054651    20A      0.079410  
      21A      0.079411    22A      0.139397    23A      0.152306  
      24A      0.170707    25A      0.175041    26A      0.175044  
      27A      0.182829    28A      0.182839    29A      0.183424  
      30A      0.190718    31A      0.203743    32A      0.203746  
      33A      0.222465    34A      0.222468    35A      0.236495  
      36A      0.249700    37A      0.249706    38A      0.267966  
      39A      0.300669    40A      0.300669    41A      0.326774  
      42A      0.326789    43A      0.339617    44A      0.371844  
      45A      0.371856    46A      0.403606    47A      0.424939  
      48A      0.424948    49A      0.445377    50A      0.482343  
      51A      0.510994    52A      0.533858    53A      0.538574  
      54A      0.538575    55A      0.568256    56A      0.570233  
      57A      0.580691    58A      0.581659    59A      0.581662  
      60A      0.586602    61A      0.586610    62A      0.633728  
      63A      0.633755    64A      0.664173    65A      0.664173  
      66A      0.706441    67A      0.706462    68A      0.735899  
      69A      0.748899    70A      0.754656    71A      0.754676  
      72A      0.773923    73A      0.778692    74A      0.778704  
      75A      0.812192    76A      0.862699    77A      0.881628  
      78A      0.881635    79A      0.899159    80A      0.899161  
      81A      0.906214    82A      0.908051    83A      0.908062  
      84A      0.964483    85A      0.964487    86A      0.973852  
      87A      0.996140    88A      0.996142    89A      0.996801  
      90A      1.118699    91A      1.119213    92A      1.129047  
      93A      1.129055    94A      1.180817    95A      1.180823  
      96A      1.183302    97A      1.210157    98A      1.210169  
      99A      1.224978   100A      1.271069   101A      1.293575  
     102A      1.300476   103A      1.300479   104A      1.331339  
     105A      1.390017   106A      1.390018   107A      1.441285  
     108A      1.441287   109A      1.487649   110A      1.487651  
     111A      1.501862   112A      1.529296   113A      1.543109  
     114A      1.559938   115A      1.598053   116A      1.598054  
     117A      1.627632   118A      1.627639   119A      1.690915  
     120A      1.690916   121A      1.711113   122A      1.736126  
     123A      1.755161   124A      1.755180   125A      1.756085  
     126A      1.841488   127A      1.842268   128A      1.842272  
     129A      1.869398   130A      1.869402   131A      1.898487  
     132A      1.904609   133A      1.904610   134A      1.954174  
     135A      1.954181   136A      1.957272   137A      2.044651  
     138A      2.057038   139A      2.057054   140A      2.059453  
     141A      2.080566   142A      2.080585   143A      2.106609  
     144A      2.123410   145A      2.123435   146A      2.198553  
     147A      2.225453   148A      2.225461   149A      2.236096  
     150A      2.238522   151A      2.288577   152A      2.288584  
     153A      2.307336   154A      2.347875   155A      2.368018  
     156A      2.418460   157A      2.418463   158A      2.443137  
     159A      2.443138   160A      2.461276   161A      2.482020  
     162A      2.482025   163A      2.577153   164A      2.611556  
     165A      2.611568   166A      2.655161   167A      2.655179  
     168A      2.680688   169A      2.722932   170A      2.722939  
     171A      2.742636   172A      2.749374   173A      2.807866  
     174A      2.807871   175A      2.829621   176A      2.829626  
     177A      2.852691   178A      2.935708   179A      2.946213  
     180A      2.946220   181A      2.984689   182A      2.984690  
     183A      3.023464   184A      3.036126   185A      3.036135  
     186A      3.143834   187A      3.208525   188A      3.217572  
     189A      3.217575   190A      3.256956   191A      3.256959  
     192A      3.365866   193A      3.407442   194A      3.407460  
     195A      3.437939   196A      3.469841   197A      3.469868  
     198A      3.602532   199A      3.620375   200A      3.620380  
     201A      3.745107   202A      3.772093   203A      3.781327  
     204A      3.781350   205A      3.877975   206A      3.892998  
     207A      3.893002   208A      3.952300   209A      4.030189  
     210A      4.030197   211A      4.030868   212A      4.152651  
     213A      4.152654   214A      4.229540   215A      4.399469  
     216A      4.399479   217A      4.460387   218A      4.460392  
     219A      4.597940   220A      4.597945   221A      4.644961  
     222A      4.813453   223A      4.813457   224A      4.865428  
     225A      4.912264   226A      4.992094   227A      4.992095  
     228A      5.059445   229A      5.293827   230A      5.319933  
     231A      5.319935   232A      5.346249   233A      5.348437  
     234A      5.446987   235A      5.446993   236A      5.801946  
     237A      5.801947   238A      5.956031   239A      6.150703  
     240A      6.150703   241A      6.151606   242A      6.153249  
     243A      6.247304   244A      6.247312   245A      6.466079  
     246A      6.523294   247A      6.523314   248A      6.549612  
     249A      6.575499   250A      6.575507   251A      6.780123  
     252A      6.798314   253A      6.914174   254A      6.966934  
     255A      6.966942   256A      6.984339   257A      7.180530  
     258A      7.180535   259A      7.209024   260A      7.262745  
     261A      7.262752   262A      7.262760   263A      7.421858  
     264A      7.421865   265A      7.508356   266A      7.508362  
     267A      7.564330   268A      7.564339   269A      7.579348  
     270A      7.671674   271A      7.671675   272A      7.696056  
     273A      7.712794   274A      7.712816   275A      7.863543  
     276A      7.918276   277A      7.918281   278A      7.986409  
     279A      7.986411   280A      8.104767   281A      8.199125  
     282A      8.202044   283A      8.202066   284A      8.272799  
     285A      8.381944   286A      8.381969   287A      8.411817  
     288A      8.411819   289A      8.499127   290A      8.511383  
     291A      8.534144   292A      8.534148   293A      8.579276  
     294A      8.624880   295A      8.758914   296A      8.758919  
     297A      8.889756   298A      8.889768   299A      8.979529  
     300A      8.982713   301A      8.982724   302A      9.045887  
     303A      9.117240   304A      9.117295   305A      9.194465  
     306A      9.194468   307A      9.257770   308A      9.304036  
     309A      9.409774   310A      9.409789   311A      9.461206  
     312A      9.576327   313A      9.576329   314A      9.643753  
     315A      9.643755   316A      9.672523   317A      9.852204  
     318A      9.852210   319A     10.000953   320A     10.000961  
     321A     10.012791   322A     10.105236   323A     10.105239  
     324A     10.196581   325A     10.330654   326A     10.496598  
     327A     10.496601   328A     10.748740   329A     11.009916  
     330A     11.424742   331A     11.667126   332A     11.667136  
     333A     11.737165   334A     11.817949   335A     11.817967  
     336A     12.532882   337A     12.583030   338A     12.583049  
     339A     13.180243   340A     14.344148   341A     14.473921  
     342A     14.473933   343A     30.993766   344A     30.993766  
     345A     31.286518   346A     35.481989   347A     42.912554  
     348A    160.265067  

    Final Occupation by Irrep:
              A 
    DOCC [     5 ]
    NA   [     5 ]
    NB   [     5 ]

  @DF-RKS Final Energy:   -56.51975940098273

   => Energetics <=

    Nuclear Repulsion Energy =             11.9475428385057612
    One-Electron Energy =                 -99.6856579114914894
    Two-Electron Energy =                  37.2622060890382514
    DFT Exchange-Correlation Energy =      -6.0438504170352605
    Empirical Dispersion Energy =           0.0000000000000000
    VV10 Nonlocal Energy =                  0.0000000000000000
    Total Energy =                        -56.5197594009827284

Computation Completed


Properties will be evaluated at   0.000000,   0.000000,   0.000000 [a0]

Properties computed using the SCF density matrix


 Multipole Moments:

 ------------------------------------------------------------------------------------
     Multipole            Electronic (a.u.)      Nuclear  (a.u.)        Total (a.u.)
 ------------------------------------------------------------------------------------

 L = 1.  Multiply by 2.5417464519 to convert [e a0] to [Debye]
 Dipole X            :         -0.0000020            0.0000153            0.0000133
 Dipole Y            :         42.1175244          -42.6899884           -0.5724640
 Dipole Z            :         -0.0000000            0.0000000           -0.0000000
 Magnitude           :                                                    0.5724640

 ------------------------------------------------------------------------------------

*** tstop() called on cmpsrv002 at Tue Sep 17 13:38:23 2024
Module time:
	user time   =     100.16 seconds =       1.67 minutes
	system time =       3.48 seconds =       0.06 minutes
	total time  =         50 seconds =       0.83 minutes
Total time:
	user time   =     308.42 seconds =       5.14 minutes
	system time =      13.95 seconds =       0.23 minutes
	total time  =        172 seconds =       2.87 minutes

         ---------------------------------------------------------
               SAPT(DFT): Intermolecular Interaction Segment       

                   by Daniel G. A. Smith and Rob Parrish           
         ---------------------------------------------------------

  ==> Algorithm <==

   SAPT DFT Functional             PBE0
   Monomer A GRAC Shift        0.116251
   Monomer B GRAC Shift        0.113162
   Delta HF                        True
   JK Algorithm                      DF

  ==> Preparing SAPT Data Cache <== 

  ==> DiskDFJK: Density-Fitted J/K Matrices <==

    J tasked:                  Yes
    K tasked:                  Yes
    wK tasked:                  No
    OpenMP threads:              4
    Integrals threads:           4
    Memory [MiB]:             4566
    Algorithm:                Core
    Integral Cache:           SAVE
    Schwarz Cutoff:          1E-12
    Fitting Condition:       1E-10

   => Auxiliary Basis Set <=

  Basis Set: (THIS_BASIS AUX)
    Blend: AUG-CC-PVQZ-JKFIT
    Number of shells: 152
    Number of basis functions: 630
    Number of Cartesian functions: 849
    Spherical Harmonics?: true
    Max angular momentum: 5


  ==> E10 Electostatics <== 

    Elst10,r                        -23.34941894 [mEh]

  ==> E10 Exchange <== 

    Exch10(S^2)                      26.79391235 [mEh]
    Exch10                           27.37478557 [mEh]

  ==> E20 Induction <== 

   => Uncoupled Induction <= 

    Ind20,u (A<-B)                   -3.95723998 [mEh]
    Ind20,u (A->B)                  -10.38447526 [mEh]
    Ind20,u                         -14.34171524 [mEh]
    Exch-Ind20,u (A<-B)               2.02047621 [mEh]
    Exch-Ind20,u (A->B)               5.99229132 [mEh]
    Exch-Ind20,u                      8.01276753 [mEh]
    Exch-Ind20,u (A<-B) (S^inf)       2.11414412 [mEh]
    Exch-Ind20,u (A->B) (S^inf)       6.33262500 [mEh]
    Exch-Ind20,u (S^inf)              8.44676912 [mEh]

   => Coupled Induction <= 

   ---------------------------------------------------
              SAPT Coupled Induction Solver           
   ---------------------------------------------------
    Maxiter             =          20
    Convergence         =   1.000E-06
   ---------------------------------------------------
     Iter       (A<-B)           (B->A)      Time [s]
   ---------------------------------------------------
    Guess    2.586711e-01     1.454496e-01         12
        1    3.718914e-02     5.667223e-02         25
        2    8.659474e-03     1.903337e-02         37
        3    1.789290e-03     1.724412e-03         49
        4    1.490774e-04     1.394992e-04         63
        5    1.891587e-05     7.124754e-06         79
        6    8.391101e-07*    7.023087e-07*        91
   ---------------------------------------------------

    Ind20,r (A<-B)                   -3.68434276 [mEh]
    Ind20,r (A->B)                  -11.06899866 [mEh]
    Ind20,r                         -14.75334142 [mEh]
    Exch-Ind20,r (A<-B)               2.25188320 [mEh]
    Exch-Ind20,r (A->B)               6.71992871 [mEh]
    Exch-Ind20,r                      8.97181191 [mEh]
    Exch-Ind20,r (A<-B) (S^inf)       2.35826096 [mEh]
    Exch-Ind20,r (A->B) (S^inf)       7.10445709 [mEh]
    Exch-Ind20,r (S^inf)              9.46271805 [mEh]
   => Loading Basis Set <=

    Name: (THIS_BASIS AUX)
    Role: RIFIT
    Keyword: DF_BASIS_MP2
    atoms 1, 4-6 entry H          line    30 file /home/vance/anaconda3/envs/p4env/share/psi4/basis/aug-cc-pvqz-ri.gbs 
    atoms 2      entry CL         line   914 file /home/vance/anaconda3/envs/p4env/share/psi4/basis/aug-cc-pvqz-ri.gbs 
    atoms 3      entry N          line   258 file /home/vance/anaconda3/envs/p4env/share/psi4/basis/aug-cc-pvqz-ri.gbs 



  ==> E20 Dispersion (CHF FDDS) <== 

   Legendre Points:          10
   Lambda Shift:          0.300
   Fxc Kernal:             ALDA
   (P|Fxc|Q) Thresh:  1.000e-06
  DFHelper Memory: AOs need 0.641 GiB; user supplied 5.960 GiB. 
  Using in-core AOs.

  ==> DFHelper <==
    NBF:                             348
    NAux:                            682
    Schwarz Cutoff:                1E-12
    Mask sparsity (%):                 2
    DFH Avail. Memory [GiB]:       5.960
    OpenMP threads:                    4
    Algorithm:                    DIRECT
    AO Core:                        True
    MO Core:                       False
    Hold Metric:                   False
    Metric Power:                  0.000
    Fitting Condition:             1E-12
    Q Shell Max:                      11


  DFHelper Memory: AOs need 0.652 GiB; user supplied 5.960 GiB. 
  Using in-core AOs.


   => Time Integration <= 

       Omega       Weight       Disp20,u         Disp20   time [s]
   2.269e+01    6.667e-02      1.392e-04      1.304e-04          6
   4.147e+00    1.495e-01      2.656e-03      2.389e-03          9
   1.572e+00    2.191e-01      8.680e-03      7.294e-03         12
   7.589e-01    2.693e-01      1.492e-02      1.147e-02         15
   4.049e-01    2.955e-01      1.662e-02      1.185e-02         19
   2.223e-01    2.955e-01      1.363e-02      9.379e-03         22
   1.186e-01    2.693e-01      9.398e-03      6.396e-03         26
   5.727e-02    2.191e-01      5.893e-03      3.999e-03         31
   2.170e-02    1.495e-01      3.309e-03      2.244e-03         36
   3.966e-03    6.667e-02      1.321e-03      8.960e-04         40

    Disp20,u                        -12.18647809 [mEh]
    Disp20                           -8.92003090 [mEh]

  ==> E20 Dispersion (MP2) <== 


    Disp20 (MP2)                    -12.15660006 [mEh]
    Exch-Disp20,u                     2.49738362 [mEh]
    Scaling Scheme                    FIXED
    Scaling Factor                    0.770
    Est. Exch-Disp20,r                1.92298539 [mEh]

   SAPT(DFT) Results
  ---------------------------------------------------------------------------------------------------------
    Electrostatics                  -23.34941894 [mEh]    -14.65198159 [kcal/mol]    -61.30389099 [kJ/mol]
      Elst1,r                       -23.34941894 [mEh]    -14.65198159 [kcal/mol]    -61.30389099 [kJ/mol]

    Exchange                         27.37478557 [mEh]     17.17793729 [kcal/mol]     71.87248962 [kJ/mol]
      Exch1                          27.37478557 [mEh]     17.17793729 [kcal/mol]     71.87248962 [kJ/mol]
      Exch1(S^2)                     26.79391235 [mEh]     16.81343384 [kcal/mol]     70.34740717 [kJ/mol]

    Induction                       -12.48994987 [mEh]     -7.83756187 [kcal/mol]    -32.79235886 [kJ/mol]
      Ind2,r                        -14.75334142 [mEh]     -9.25786151 [kcal/mol]    -38.73489256 [kJ/mol]
      Exch-Ind2,r                     8.97181191 [mEh]      5.62989697 [kcal/mol]     23.55548894 [kJ/mol]
      Induction (A<-B)               -1.43245956 [mEh]     -0.89888195 [kcal/mol]     -3.76092206 [kJ/mol]
      Induction (A->B)               -4.34906995 [mEh]     -2.72908259 [kcal/mol]    -11.41848157 [kJ/mol]
      delta HF,r (2)                 -6.70842036 [mEh]     -4.20959733 [kcal/mol]    -17.61295524 [kJ/mol]

    Dispersion                       -6.99704551 [mEh]     -4.39071235 [kcal/mol]    -18.37074046 [kJ/mol]
      Disp2,r                        -8.92003090 [mEh]     -5.59740390 [kcal/mol]    -23.41953790 [kJ/mol]
      Disp2,u                       -12.15660006 [mEh]     -7.62838170 [kcal/mol]    -31.91714905 [kJ/mol]
      Est. Exch-Disp2,r               1.92298539 [mEh]      1.20669155 [kcal/mol]      5.04879743 [kJ/mol]
      Exch-Disp2,u                    2.49738362 [mEh]      1.56713188 [kcal/mol]      6.55687978 [kJ/mol]

    Total SAPT(DFT)                 -15.46162876 [mEh]     -9.70231852 [kcal/mol]    -40.59450071 [kJ/mol]
  ---------------------------------------------------------------------------------------------------------

*** tstop() called on cmpsrv002 at Tue Sep 17 13:42:58 2024
Module time:
	user time   =     611.15 seconds =      10.19 minutes
	system time =      35.97 seconds =       0.60 minutes
	total time  =        325 seconds =       5.42 minutes
Total time:
	user time   =     819.41 seconds =      13.66 minutes
	system time =      46.44 seconds =       0.77 minutes
	total time  =        447 seconds =       7.45 minutes

    Psi4 stopped on: Tuesday, 17 September 2024 01:42PM
    Psi4 wall time for execution: 0:07:27.57

*** Psi4 exiting successfully. Buy a developer a beer!
