
    -----------------------------------------------------------------------
          Psi4: An Open-Source Ab Initio Electronic Structure Package
                               Psi4 1.9.1 release

                         Git: Rev {} zzzzzzz 


    D. G. A. Smith, L. A. Burns, A. C. Simmonett, R. M. Parrish,
    M. C. Schieber, R. Galvelis, P. Kraus, H. Kruse, R. Di Remigio,
    A. Alenaizan, A. M. James, S. Lehtola, J. P. Misiewicz, M. Scheurer,
    R. A. Shaw, J. B. Schriber, Y. Xie, Z. L. Glick, D. A. Sirianni,
    J. S. O'Brien, J. M. Waldrop, A. Kumar, E. G. Hohenstein,
    B. P. Pritchard, B. R. Brooks, H. F. Schaefer III, A. Yu. Sokolov,
    K. Patkowski, A. E. DePrince III, U. Bozkaya, R. A. King,
    F. A. Evangelista, J. M. Turney, T. D. Crawford, C. D. Sherrill,
    J. Chem. Phys. 152(18) 184108 (2020). https://doi.org/10.1063/5.0006002

                            Additional Code Authors
    E. T. Seidl, C. L. Janssen, E. F. Valeev, M. L. Leininger,
    J. F. Gonthier, R. M. Richard, H. R. McAlexander, M. Saitow, X. Wang,
    P. Verma, M. H. Lechner, A. Jiang, S. Behnle, A. G. Heide,
    M. F. Herbst, and D. L. Poole

             Previous Authors, Complete List of Code Contributors,
                       and Citations for Specific Modules
    https://github.com/psi4/psi4/blob/master/codemeta.json
    https://github.com/psi4/psi4/graphs/contributors
    http://psicode.org/psi4manual/master/introduction.html#citing-psifour

    -----------------------------------------------------------------------


    Psi4 started on: Thursday, 19 September 2024 02:16PM

    Process ID: 605855
    Host:       cmpsrv002
    PSIDATADIR: /home/vance/anaconda3/envs/p4env/share/psi4
    Memory:     500.0 MiB
    Threads:    8
    
  ==> Input File <==

--------------------------------------------------------------------------
#charge=0 charge_a=0 charge_b=0 selection_a=1-2 selection_b=3-6 scaling=1.05 benchmark_Eint=-9.617 benchmark_unit=kcal/mol group=XH-N
set_num_threads(4)
memory 8 GB
basis this_basis {
    assign    def2-qzvp
}

molecule {
     0 1
    --
     0 1
     H        0.00000       -0.31269        0.00000
    Cl       -0.00000        1.03066        0.00000
    --
     0 1
     N        0.00000       -2.12057        0.00000
     H       -0.47318       -2.47958        0.81958
     H       -0.47318       -2.47958       -0.81958
     H        0.94637       -2.47958        0.00000
}

set {
    sapt_dft_functional     PBE0
    scf_type                DF
    freeze_core             true
    sapt_dft_grac_shift_a    0.116251
    sapt_dft_grac_shift_b    0.113162
    sapt_dft_do_hybrid      true
    do_ind_exch_sinf        true
    do_disp_exch_sinf       true
}

nrg = energy('sapt(DFT)')
--------------------------------------------------------------------------
  Threads set to 4 by Python driver.

  Memory set to   7.451 GiB by Python driver.

Scratch directory: /scratch2/vance/psi4/

*** tstart() called on cmpsrv002
*** at Thu Sep 19 14:16:09 2024

  SAPT does not make use of molecular symmetry, further calculations in C1 point group.

         ---------------------------------------------------------
                            SAPT(DFT) Procedure                    

                           by Daniel G. A. Smith                   
         ---------------------------------------------------------

Warning! The default value of SAPT_DFT_EXCH_DISP_SCALE_SCHEME has changed from DISP to FIXED. Please be careful comparing results with earlier versions. 

  ==> Algorithm <==

   SAPT DFT Functional             PBE0
   Monomer A GRAC Shift        0.116251
   Monomer B GRAC Shift        0.113162
   Delta HF                        True
   JK Algorithm                      DF

   Required computations:
     HF  (Dimer)
     HF  (Monomer A)
     HF  (Monomer B)
     DFT (Monomer A)
     DFT (Monomer B)

   => Libint2 <=

    Primary   basis highest AM E, G, H:  6, 6, 3
    Auxiliary basis highest AM E, G, H:  7, 7, 4
    Onebody   basis highest AM E, G, H:  -, -, -
    Solid Harmonics ordering:            Gaussian

*** tstart() called on cmpsrv002
*** at Thu Sep 19 14:16:09 2024

   => Loading Basis Set <=

    Name: THIS_BASIS
    Role: ORBITAL
    Keyword: BASIS
    atoms 1, 4-6 entry H          line    15 file /home/vance/anaconda3/envs/p4env/share/psi4/basis/def2-qzvp.gbs 
    atoms 2      entry CL         line   809 file /home/vance/anaconda3/envs/p4env/share/psi4/basis/def2-qzvp.gbs 
    atoms 3      entry N          line   242 file /home/vance/anaconda3/envs/p4env/share/psi4/basis/def2-qzvp.gbs 


         ---------------------------------------------------------
                         SAPT(DFT): delta HF Dimer                 
         ---------------------------------------------------------
                                   SCF
               by Justin Turney, Rob Parrish, Andy Simmonett
                          and Daniel G. A. Smith
                              RHF Reference
                        4 Threads,   7629 MiB Core
         ---------------------------------------------------------

  ==> Geometry <==

    Molecular point group: c1
    Full point group: Cs

    Geometry (in Angstrom), charge = 0, multiplicity = 1:

       Center              X                  Y                   Z               Mass       
    ------------   -----------------  -----------------  -----------------  -----------------
         H           -0.000000190144    -0.285039115064     0.000000000000     1.007825032230
         CL          -0.000000190144     1.058310884936     0.000000000000    34.968852682000
         N           -0.000000190144    -2.092919115064     0.000000000000    14.003074004430
         H           -0.473180190144    -2.451929115064     0.819580000000     1.007825032230
         H           -0.473180190144    -2.451929115064    -0.819580000000     1.007825032230
         H            0.946369809856    -2.451929115064     0.000000000000     1.007825032230

  Running in c1 symmetry.

  Rotational constants: A =      6.22544  B =      0.14034  C =      0.14034 [cm^-1]
  Rotational constants: A = 186633.95025  B =   4207.40693  C =   4207.40665 [MHz]
  Nuclear repulsion =   48.771236343739410

  Charge       = 0
  Multiplicity = 1
  Electrons    = 28
  Nalpha       = 14
  Nbeta        = 14

  ==> Algorithm <==

  SCF Algorithm Type is DF.
  DIIS enabled.
  MOM disabled.
  Fractional occupation disabled.
  Guess Type is SAD.
  Energy threshold   = 1.00e-08
  Density threshold  = 1.00e-08
  Integral threshold = 1.00e-12

  ==> Primary Basis <==

  Basis Set: THIS_BASIS
    Blend: DEF2-QZVP
    Number of shells: 79
    Number of basis functions: 247
    Number of Cartesian functions: 298
    Spherical Harmonics?: true
    Max angular momentum: 4

   => Loading Basis Set <=

    Name: (THIS_BASIS AUX)
    Role: JKFIT
    Keyword: DF_BASIS_SCF
    atoms 1, 4-6 entry H          line    18 file /home/vance/anaconda3/envs/p4env/share/psi4/basis/def2-universal-jkfit.gbs 
    atoms 2      entry CL         line   986 file /home/vance/anaconda3/envs/p4env/share/psi4/basis/def2-universal-jkfit.gbs 
    atoms 3      entry N          line   258 file /home/vance/anaconda3/envs/p4env/share/psi4/basis/def2-universal-jkfit.gbs 

  ==> Integral Setup <==

  ==> DiskDFJK: Density-Fitted J/K Matrices <==

    J tasked:                  Yes
    K tasked:                  Yes
    wK tasked:                  No
    OpenMP threads:              4
    Integrals threads:           4
    Memory [MiB]:             5722
    Algorithm:                Core
    Integral Cache:           SAVE
    Schwarz Cutoff:          1E-12
    Fitting Condition:       1E-10

   => Auxiliary Basis Set <=

  Basis Set: (THIS_BASIS AUX)
    Blend: DEF2-UNIVERSAL-JKFIT
    Number of shells: 87
    Number of basis functions: 277
    Number of Cartesian functions: 328
    Spherical Harmonics?: true
    Max angular momentum: 4

  Minimum eigenvalue in the overlap matrix is 1.1551837083E-04.
  Reciprocal condition number of the overlap matrix is 1.3903214697E-05.
    Using symmetric orthogonalization.

  ==> Pre-Iterations <==

  SCF Guess: Superposition of Atomic Densities via on-the-fly atomic UHF (no occupation information).

   -------------------------
    Irrep   Nso     Nmo    
   -------------------------
     A        247     247 
   -------------------------
    Total     247     247
   -------------------------

  ==> Iterations <==

                           Total Energy        Delta E     RMS |[F,P]|

   @DF-RHF iter SAD:  -515.66939333058178   -5.15669e+02   0.00000e+00 
   @DF-RHF iter   1:  -516.25035345189474   -5.80960e-01   1.86277e-03 ADIIS/DIIS
   @DF-RHF iter   2:  -516.32290559636363   -7.25521e-02   9.34047e-04 ADIIS/DIIS
   @DF-RHF iter   3:  -516.34231255166594   -1.94070e-02   1.33546e-04 ADIIS/DIIS
   @DF-RHF iter   4:  -516.34326718438524   -9.54633e-04   5.04616e-05 DIIS
   @DF-RHF iter   5:  -516.34336882112552   -1.01637e-04   1.15546e-05 DIIS
   @DF-RHF iter   6:  -516.34338040106775   -1.15799e-05   2.81310e-06 DIIS
   @DF-RHF iter   7:  -516.34338118819915   -7.87131e-07   7.67323e-07 DIIS
   @DF-RHF iter   8:  -516.34338123765485   -4.94557e-08   2.02086e-07 DIIS
   @DF-RHF iter   9:  -516.34338123979489   -2.14004e-09   3.91067e-08 DIIS
   @DF-RHF iter  10:  -516.34338123991881   -1.23919e-10   6.85418e-09 DIIS
  Energy and wave function converged.


  ==> Post-Iterations <==

    Orbital Energies [Eh]
    ---------------------

    Doubly Occupied:                                                      

       1A   -104.797266     2A    -15.581373     3A    -10.522843  
       4A     -7.989904     5A     -7.988645     6A     -7.988645  
       7A     -1.185447     8A     -1.061094     9A     -0.673068  
      10A     -0.673066    11A     -0.595537    12A     -0.453086  
      13A     -0.432579    14A     -0.432579  

    Virtual:                                                              

      15A      0.086802    16A      0.140999    17A      0.140999  
      18A      0.186876    19A      0.251821    20A      0.268792  
      21A      0.268793    22A      0.327730    23A      0.332508  
      24A      0.332508    25A      0.354378    26A      0.461684  
      27A      0.461684    28A      0.486100    29A      0.492784  
      30A      0.492784    31A      0.531435    32A      0.531435  
      33A      0.577800    34A      0.577801    35A      0.646465  
      36A      0.700262    37A      0.814763    38A      0.839893  
      39A      0.850944    40A      0.850945    41A      0.896311  
      42A      0.896311    43A      0.944876    44A      1.037949  
      45A      1.037950    46A      1.083863    47A      1.083863  
      48A      1.105148    49A      1.159934    50A      1.289340  
      51A      1.289341    52A      1.299157    53A      1.340037  
      54A      1.340037    55A      1.361903    56A      1.378919  
      57A      1.413962    58A      1.413962    59A      1.458114  
      60A      1.458114    61A      1.462748    62A      1.462749  
      63A      1.501033    64A      1.554035    65A      1.554035  
      66A      1.597636    67A      1.598207    68A      1.622794  
      69A      1.837097    70A      1.837097    71A      1.985650  
      72A      1.985651    73A      2.007265    74A      2.197360  
      75A      2.244714    76A      2.244714    77A      2.310170  
      78A      2.310172    79A      2.311015    80A      2.359729  
      81A      2.449217    82A      2.449218    83A      2.472162  
      84A      2.528251    85A      2.528252    86A      2.576311  
      87A      2.576312    88A      2.656317    89A      2.656317  
      90A      2.674127    91A      2.674128    92A      2.676714  
      93A      2.824297    94A      2.856504    95A      2.865148  
      96A      2.865148    97A      2.946599    98A      3.061363  
      99A      3.061364   100A      3.085079   101A      3.154769  
     102A      3.154773   103A      3.207927   104A      3.261788  
     105A      3.261789   106A      3.278363   107A      3.409023  
     108A      3.529589   109A      3.578373   110A      3.578374  
     111A      3.623790   112A      3.623790   113A      3.710084  
     114A      3.748241   115A      3.748242   116A      3.941049  
     117A      3.941051   118A      3.968075   119A      3.971761  
     120A      3.972276   121A      4.001918   122A      4.001918  
     123A      4.124818   124A      4.124818   125A      4.130106  
     126A      4.137961   127A      4.319258   128A      4.319258  
     129A      4.333212   130A      4.333218   131A      4.356310  
     132A      4.356426   133A      4.411717   134A      4.411718  
     135A      4.497995   136A      4.526736   137A      4.526737  
     138A      4.559620   139A      4.651532   140A      4.651532  
     141A      5.004872   142A      5.010255   143A      5.010256  
     144A      5.112060   145A      5.349235   146A      5.421966  
     147A      5.421974   148A      6.132798   149A      6.132801  
     150A      6.134196   151A      6.138806   152A      6.235665  
     153A      6.235669   154A      6.296376   155A      6.342235  
     156A      6.360824   157A      6.360832   158A      6.703460  
     159A      6.703461   160A      6.759794   161A      6.849713  
     162A      6.905702   163A      6.905706   164A      7.072319  
     165A      7.072321   166A      7.198650   167A      7.235253  
     168A      7.322466   169A      7.322477   170A      7.478026  
     171A      7.478026   172A      7.595902   173A      7.595902  
     174A      7.609060   175A      7.671356   176A      7.671359  
     177A      7.729104   178A      7.742922   179A      7.950967  
     180A      7.950968   181A      8.018476   182A      8.103059  
     183A      8.103061   184A      8.183417   185A      8.243922  
     186A      8.266501   187A      8.266506   188A      8.315749  
     189A      8.315749   190A      8.399377   191A      8.399377  
     192A      8.465283   193A      8.472769   194A      8.559853  
     195A      8.563646   196A      8.563647   197A      8.627328  
     198A      8.772399   199A      8.772405   200A      8.846658  
     201A      8.846666   202A      8.955083   203A      9.048832  
     204A      9.048837   205A      9.067312   206A      9.104163  
     207A      9.104164   208A      9.164145   209A      9.515908  
     210A      9.515919   211A      9.583311   212A      9.710138  
     213A      9.901473   214A      9.901476   215A     10.086749  
     216A     10.086754   217A     10.101891   218A     10.266688  
     219A     10.509375   220A     10.509378   221A     10.551812  
     222A     10.865178   223A     11.323406   224A     11.323406  
     225A     11.445045   226A     11.445045   227A     11.587990  
     228A     11.670957   229A     11.670958   230A     12.058914  
     231A     12.096670   232A     12.096676   233A     12.148993  
     234A     12.287803   235A     12.287816   236A     12.432708  
     237A     14.835226   238A     14.835227   239A     15.697226  
     240A     30.021656   241A     39.415296   242A     43.327798  
     243A     43.327798   244A     43.477047   245A    100.418812  
     246A    200.541638   247A    530.752645  

    Final Occupation by Irrep:
              A 
    DOCC [    14 ]
    NA   [    14 ]
    NB   [    14 ]

  @DF-RHF Final Energy:  -516.34338123991881

   => Energetics <=

    Nuclear Repulsion Energy =             48.7712363437394103
    One-Electron Energy =                -809.4789760617552474
    Two-Electron Energy =                 244.3643584780970741
    Total Energy =                       -516.3433812399188128

Computation Completed


Properties will be evaluated at   0.000000,   0.000000,   0.000000 [a0]

Properties computed using the SCF density matrix


 Multipole Moments:

 ------------------------------------------------------------------------------------
     Multipole            Electronic (a.u.)      Nuclear  (a.u.)        Total (a.u.)
 ------------------------------------------------------------------------------------

 L = 1.  Multiply by 2.5417464519 to convert [e a0] to [Debye]
 Dipole X            :         -0.0000058            0.0000088            0.0000031
 Dipole Y            :          6.3597864           -8.1257755           -1.7659891
 Dipole Z            :          0.0000000            0.0000000            0.0000000
 Magnitude           :                                                    1.7659891

 ------------------------------------------------------------------------------------

*** tstop() called on cmpsrv002 at Thu Sep 19 14:18:55 2024
Module time:
	user time   =      11.40 seconds =       0.19 minutes
	system time =       1.48 seconds =       0.02 minutes
	total time  =        166 seconds =       2.77 minutes
Total time:
	user time   =      11.40 seconds =       0.19 minutes
	system time =       1.48 seconds =       0.02 minutes
	total time  =        166 seconds =       2.77 minutes
   => Libint2 <=

    Primary   basis highest AM E, G, H:  6, 6, 3
    Auxiliary basis highest AM E, G, H:  7, 7, 4
    Onebody   basis highest AM E, G, H:  -, -, -
    Solid Harmonics ordering:            Gaussian

*** tstart() called on cmpsrv002
*** at Thu Sep 19 14:18:55 2024

   => Loading Basis Set <=

    Name: THIS_BASIS
    Role: ORBITAL
    Keyword: BASIS
    atoms 1, 4-6 entry H          line    15 file /home/vance/anaconda3/envs/p4env/share/psi4/basis/def2-qzvp.gbs 
    atoms 2      entry CL         line   809 file /home/vance/anaconda3/envs/p4env/share/psi4/basis/def2-qzvp.gbs 
    atoms 3      entry N          line   242 file /home/vance/anaconda3/envs/p4env/share/psi4/basis/def2-qzvp.gbs 


         ---------------------------------------------------------
                       SAPT(DFT): delta HF Monomer A               
         ---------------------------------------------------------
                                   SCF
               by Justin Turney, Rob Parrish, Andy Simmonett
                          and Daniel G. A. Smith
                              RHF Reference
                        4 Threads,   7629 MiB Core
         ---------------------------------------------------------

  ==> Geometry <==

    Molecular point group: c1
    Full point group: Cs

    Geometry (in Angstrom), charge = 0, multiplicity = 1:

       Center              X                  Y                   Z               Mass       
    ------------   -----------------  -----------------  -----------------  -----------------
         H           -0.000000190144    -0.285039115064     0.000000000000     1.007825032230
         CL          -0.000000190144     1.058310884936     0.000000000000    34.968852682000
      Gh(N)          -0.000000190144    -2.092919115064     0.000000000000    14.003074004430
      Gh(H)          -0.473180190144    -2.451929115064     0.819580000000     1.007825032230
      Gh(H)          -0.473180190144    -2.451929115064    -0.819580000000     1.007825032230
      Gh(H)           0.946369809856    -2.451929115064     0.000000000000     1.007825032230

  Running in c1 symmetry.

  Rotational constants: A =      6.22544  B =      0.14034  C =      0.14034 [cm^-1]
  Rotational constants: A = 186633.95025  B =   4207.40693  C =   4207.40665 [MHz]
  Nuclear repulsion =    6.696700473733577

  Charge       = 0
  Multiplicity = 1
  Electrons    = 18
  Nalpha       = 9
  Nbeta        = 9

  ==> Algorithm <==

  SCF Algorithm Type is DF.
  DIIS enabled.
  MOM disabled.
  Fractional occupation disabled.
  Guess Type is SAD.
  Energy threshold   = 1.00e-08
  Density threshold  = 1.00e-08
  Integral threshold = 1.00e-12

  ==> Primary Basis <==

  Basis Set: THIS_BASIS
    Blend: DEF2-QZVP
    Number of shells: 79
    Number of basis functions: 247
    Number of Cartesian functions: 298
    Spherical Harmonics?: true
    Max angular momentum: 4

   => Loading Basis Set <=

    Name: (THIS_BASIS AUX)
    Role: JKFIT
    Keyword: DF_BASIS_SCF
    atoms 1, 4-6 entry H          line    18 file /home/vance/anaconda3/envs/p4env/share/psi4/basis/def2-universal-jkfit.gbs 
    atoms 2      entry CL         line   986 file /home/vance/anaconda3/envs/p4env/share/psi4/basis/def2-universal-jkfit.gbs 
    atoms 3      entry N          line   258 file /home/vance/anaconda3/envs/p4env/share/psi4/basis/def2-universal-jkfit.gbs 

  ==> Integral Setup <==

  ==> DiskDFJK: Density-Fitted J/K Matrices <==

    J tasked:                  Yes
    K tasked:                  Yes
    wK tasked:                  No
    OpenMP threads:              4
    Integrals threads:           4
    Memory [MiB]:             5722
    Algorithm:                Core
    Integral Cache:           SAVE
    Schwarz Cutoff:          1E-12
    Fitting Condition:       1E-10

   => Auxiliary Basis Set <=

  Basis Set: (THIS_BASIS AUX)
    Blend: DEF2-UNIVERSAL-JKFIT
    Number of shells: 87
    Number of basis functions: 277
    Number of Cartesian functions: 328
    Spherical Harmonics?: true
    Max angular momentum: 4

  Minimum eigenvalue in the overlap matrix is 1.1551837083E-04.
  Reciprocal condition number of the overlap matrix is 1.3903214697E-05.
    Using symmetric orthogonalization.

  ==> Pre-Iterations <==

  SCF Guess: Superposition of Atomic Densities via on-the-fly atomic UHF (no occupation information).

   -------------------------
    Irrep   Nso     Nmo    
   -------------------------
     A        247     247 
   -------------------------
    Total     247     247
   -------------------------

  ==> Iterations <==

                           Total Energy        Delta E     RMS |[F,P]|

   @DF-RHF iter SAD:  -459.87337640952586   -4.59873e+02   0.00000e+00 
   @DF-RHF iter   1:  -460.08527527499569   -2.11899e-01   8.92999e-04 ADIIS/DIIS
   @DF-RHF iter   2:  -460.10553226089149   -2.02570e-02   3.75442e-04 ADIIS/DIIS
   @DF-RHF iter   3:  -460.10841099794260   -2.87874e-03   6.56015e-05 DIIS
   @DF-RHF iter   4:  -460.10876433398204   -3.53336e-04   2.09084e-05 DIIS
   @DF-RHF iter   5:  -460.10880969696683   -4.53630e-05   3.62212e-06 DIIS
   @DF-RHF iter   6:  -460.10881084629341   -1.14933e-06   7.89988e-07 DIIS
   @DF-RHF iter   7:  -460.10881086968431   -2.33909e-08   1.70155e-07 DIIS
   @DF-RHF iter   8:  -460.10881087164461   -1.96030e-09   3.35137e-08 DIIS
   @DF-RHF iter   9:  -460.10881087172265   -7.80460e-11   4.89531e-09 DIIS
  Energy and wave function converged.


  ==> Post-Iterations <==

    Orbital Energies [Eh]
    ---------------------

    Doubly Occupied:                                                      

       1A   -104.851999     2A    -10.575746     3A     -8.042857  
       4A     -8.041223     5A     -8.041223     6A     -1.104828  
       7A     -0.611030     8A     -0.475158     9A     -0.475158  

    Virtual:                                                              

      10A      0.056218    11A      0.136270    12A      0.136270  
      13A      0.140572    14A      0.219751    15A      0.250985  
      16A      0.278788    17A      0.278788    18A      0.315963  
      19A      0.315964    20A      0.326630    21A      0.404713  
      22A      0.463026    23A      0.463026    24A      0.495497  
      25A      0.495497    26A      0.540506    27A      0.540506  
      28A      0.613077    29A      0.657659    30A      0.657660  
      31A      0.659285    32A      0.801266    33A      0.866395  
      34A      0.881719    35A      0.881719    36A      0.939903  
      37A      0.943783    38A      0.949873    39A      0.949874  
      40A      1.091820    41A      1.091822    42A      1.100393  
      43A      1.153489    44A      1.153489    45A      1.197800  
      46A      1.308045    47A      1.314661    48A      1.314661  
      49A      1.346397    50A      1.346398    51A      1.402590  
      52A      1.419213    53A      1.419213    54A      1.427809  
      55A      1.427810    56A      1.478950    57A      1.486919  
      58A      1.486919    59A      1.521185    60A      1.521185  
      61A      1.553110    62A      1.561706    63A      1.563232  
      64A      1.883829    65A      1.919642    66A      1.919642  
      67A      2.050242    68A      2.188101    69A      2.188104  
      70A      2.201566    71A      2.304305    72A      2.304306  
      73A      2.410623    74A      2.410925    75A      2.410926  
      76A      2.466842    77A      2.538189    78A      2.538189  
      79A      2.587861    80A      2.587862    81A      2.676842  
      82A      2.684144    83A      2.684146    84A      2.751994  
      85A      2.776677    86A      2.776678    87A      2.845274  
      88A      2.869209    89A      2.869209    90A      2.965631  
      91A      2.965632    92A      2.992497    93A      3.030155  
      94A      3.030155    95A      3.126485    96A      3.193987  
      97A      3.312594    98A      3.395787    99A      3.430561  
     100A      3.435245   101A      3.435245   102A      3.472654  
     103A      3.472655   104A      3.583005   105A      3.583005  
     106A      3.616398   107A      3.682177   108A      3.682177  
     109A      3.750866   110A      3.750869   111A      3.893318  
     112A      3.928284   113A      3.928548   114A      3.961890  
     115A      3.961890   116A      3.983200   117A      3.983202  
     118A      4.017902   119A      4.086686   120A      4.086687  
     121A      4.275185   122A      4.275185   123A      4.294339  
     124A      4.313706   125A      4.314065   126A      4.356631  
     127A      4.356631   128A      4.364052   129A      4.424140  
     130A      4.503555   131A      4.503560   132A      4.554679  
     133A      4.570319   134A      4.570323   135A      4.993804  
     136A      4.993805   137A      5.012177   138A      5.070638  
     139A      5.070644   140A      5.219105   141A      5.402777  
     142A      5.997736   143A      5.997741   144A      6.089751  
     145A      6.095159   146A      6.426050   147A      6.426054  
     148A      6.467765   149A      6.467767   150A      6.554357  
     151A      6.589773   152A      6.672522   153A      6.672522  
     154A      6.777855   155A      6.777863   156A      7.166037  
     157A      7.166043   158A      7.269563   159A      7.320950  
     160A      7.320957   161A      7.408420   162A      7.455122  
     163A      7.455123   164A      7.605845   165A      7.639788  
     166A      7.743722   167A      7.790424   168A      7.790424  
     169A      7.953315   170A      8.138493   171A      8.138498  
     172A      8.155636   173A      8.229866   174A      8.229867  
     175A      8.385736   176A      8.414346   177A      8.414347  
     178A      8.477823   179A      8.477825   180A      8.607625  
     181A      8.607626   182A      8.653864   183A      8.756818  
     184A      8.756823   185A      8.772980   186A      8.853849  
     187A      8.853850   188A      8.854607   189A      8.988746  
     190A      8.992791   191A      8.992799   192A      9.005628  
     193A      9.167838   194A      9.270325   195A      9.270332  
     196A      9.270589   197A      9.335410   198A      9.335410  
     199A      9.475958   200A      9.564845   201A      9.731093  
     202A      9.731107   203A      9.755410   204A      9.959081  
     205A     10.074129   206A     10.074142   207A     10.227812  
     208A     10.227816   209A     10.306037   210A     10.534031  
     211A     10.708477   212A     10.708477   213A     10.991956  
     214A     10.991968   215A     11.185478   216A     11.275390  
     217A     11.275390   218A     11.389228   219A     11.389228  
     220A     11.727595   221A     11.809838   222A     11.809850  
     223A     12.086524   224A     12.354558   225A     12.354571  
     226A     12.791879   227A     13.677972   228A     13.860396  
     229A     13.860401   230A     14.185879   231A     14.284334  
     232A     14.284340   233A     14.571031   234A     14.571037  
     235A     14.616349   236A     16.127991   237A     18.237932  
     238A     18.237944   239A     25.535515   240A     29.970566  
     241A     43.274623   242A     43.274623   243A     43.422862  
     244A     70.304001   245A    100.365351   246A    318.680051  
     247A    530.698235  

    Final Occupation by Irrep:
              A 
    DOCC [     9 ]
    NA   [     9 ]
    NB   [     9 ]

  @DF-RHF Final Energy:  -460.10881087172265

   => Energetics <=

    Nuclear Repulsion Energy =              6.6967004737335767
    One-Electron Energy =                -649.1725794433054944
    Two-Electron Energy =                 182.3670680978492555
    Total Energy =                       -460.1088108717226532

Computation Completed


Properties will be evaluated at   0.000000,   0.000000,   0.000000 [a0]

Properties computed using the SCF density matrix


 Multipole Moments:

 ------------------------------------------------------------------------------------
     Multipole            Electronic (a.u.)      Nuclear  (a.u.)        Total (a.u.)
 ------------------------------------------------------------------------------------

 L = 1.  Multiply by 2.5417464519 to convert [e a0] to [Debye]
 Dipole X            :          0.0000065           -0.0000065           -0.0000000
 Dipole Y            :        -33.9626971           33.4599555           -0.5027416
 Dipole Z            :          0.0000000            0.0000000            0.0000000
 Magnitude           :                                                    0.5027416

 ------------------------------------------------------------------------------------

*** tstop() called on cmpsrv002 at Thu Sep 19 14:20:20 2024
Module time:
	user time   =       9.99 seconds =       0.17 minutes
	system time =       0.69 seconds =       0.01 minutes
	total time  =         85 seconds =       1.42 minutes
Total time:
	user time   =      21.39 seconds =       0.36 minutes
	system time =       2.17 seconds =       0.04 minutes
	total time  =        251 seconds =       4.18 minutes
   => Libint2 <=

    Primary   basis highest AM E, G, H:  6, 6, 3
    Auxiliary basis highest AM E, G, H:  7, 7, 4
    Onebody   basis highest AM E, G, H:  -, -, -
    Solid Harmonics ordering:            Gaussian

*** tstart() called on cmpsrv002
*** at Thu Sep 19 14:20:20 2024

   => Loading Basis Set <=

    Name: THIS_BASIS
    Role: ORBITAL
    Keyword: BASIS
    atoms 1, 4-6 entry H          line    15 file /home/vance/anaconda3/envs/p4env/share/psi4/basis/def2-qzvp.gbs 
    atoms 2      entry CL         line   809 file /home/vance/anaconda3/envs/p4env/share/psi4/basis/def2-qzvp.gbs 
    atoms 3      entry N          line   242 file /home/vance/anaconda3/envs/p4env/share/psi4/basis/def2-qzvp.gbs 


         ---------------------------------------------------------
                       SAPT(DFT): delta HF Monomer B               
         ---------------------------------------------------------
                                   SCF
               by Justin Turney, Rob Parrish, Andy Simmonett
                          and Daniel G. A. Smith
                              RHF Reference
                        4 Threads,   7629 MiB Core
         ---------------------------------------------------------

  ==> Geometry <==

    Molecular point group: c1
    Full point group: Cs

    Geometry (in Angstrom), charge = 0, multiplicity = 1:

       Center              X                  Y                   Z               Mass       
    ------------   -----------------  -----------------  -----------------  -----------------
      Gh(H)          -0.000000190144    -0.285039115064     0.000000000000     1.007825032230
      Gh(CL)         -0.000000190144     1.058310884936     0.000000000000    34.968852682000
         N           -0.000000190144    -2.092919115064     0.000000000000    14.003074004430
         H           -0.473180190144    -2.451929115064     0.819580000000     1.007825032230
         H           -0.473180190144    -2.451929115064    -0.819580000000     1.007825032230
         H            0.946369809856    -2.451929115064     0.000000000000     1.007825032230

  Running in c1 symmetry.

  Rotational constants: A =      6.22544  B =      0.14034  C =      0.14034 [cm^-1]
  Rotational constants: A = 186633.95025  B =   4207.40693  C =   4207.40665 [MHz]
  Nuclear repulsion =   11.947542838505765

  Charge       = 0
  Multiplicity = 1
  Electrons    = 10
  Nalpha       = 5
  Nbeta        = 5

  ==> Algorithm <==

  SCF Algorithm Type is DF.
  DIIS enabled.
  MOM disabled.
  Fractional occupation disabled.
  Guess Type is SAD.
  Energy threshold   = 1.00e-08
  Density threshold  = 1.00e-08
  Integral threshold = 1.00e-12

  ==> Primary Basis <==

  Basis Set: THIS_BASIS
    Blend: DEF2-QZVP
    Number of shells: 79
    Number of basis functions: 247
    Number of Cartesian functions: 298
    Spherical Harmonics?: true
    Max angular momentum: 4

   => Loading Basis Set <=

    Name: (THIS_BASIS AUX)
    Role: JKFIT
    Keyword: DF_BASIS_SCF
    atoms 1, 4-6 entry H          line    18 file /home/vance/anaconda3/envs/p4env/share/psi4/basis/def2-universal-jkfit.gbs 
    atoms 2      entry CL         line   986 file /home/vance/anaconda3/envs/p4env/share/psi4/basis/def2-universal-jkfit.gbs 
    atoms 3      entry N          line   258 file /home/vance/anaconda3/envs/p4env/share/psi4/basis/def2-universal-jkfit.gbs 

  ==> Integral Setup <==

  ==> DiskDFJK: Density-Fitted J/K Matrices <==

    J tasked:                  Yes
    K tasked:                  Yes
    wK tasked:                  No
    OpenMP threads:              4
    Integrals threads:           4
    Memory [MiB]:             5722
    Algorithm:                Core
    Integral Cache:           SAVE
    Schwarz Cutoff:          1E-12
    Fitting Condition:       1E-10

   => Auxiliary Basis Set <=

  Basis Set: (THIS_BASIS AUX)
    Blend: DEF2-UNIVERSAL-JKFIT
    Number of shells: 87
    Number of basis functions: 277
    Number of Cartesian functions: 328
    Spherical Harmonics?: true
    Max angular momentum: 4

  Minimum eigenvalue in the overlap matrix is 1.1551837083E-04.
  Reciprocal condition number of the overlap matrix is 1.3903214697E-05.
    Using symmetric orthogonalization.

  ==> Pre-Iterations <==

  SCF Guess: Superposition of Atomic Densities via on-the-fly atomic UHF (no occupation information).

   -------------------------
    Irrep   Nso     Nmo    
   -------------------------
     A        247     247 
   -------------------------
    Total     247     247
   -------------------------

  ==> Iterations <==

                           Total Energy        Delta E     RMS |[F,P]|

   @DF-RHF iter SAD:   -55.65240523312187   -5.56524e+01   0.00000e+00 
   @DF-RHF iter   1:   -56.12996746812983   -4.77562e-01   1.85965e-03 ADIIS/DIIS
   @DF-RHF iter   2:   -56.19695383880622   -6.69864e-02   1.07276e-03 ADIIS/DIIS
   @DF-RHF iter   3:   -56.22384901562911   -2.68952e-02   9.95360e-05 DIIS
   @DF-RHF iter   4:   -56.22447811861641   -6.29103e-04   1.85122e-05 DIIS
   @DF-RHF iter   5:   -56.22449868529811   -2.05667e-05   3.45404e-06 DIIS
   @DF-RHF iter   6:   -56.22449989366886   -1.20837e-06   8.63513e-07 DIIS
   @DF-RHF iter   7:   -56.22449997365413   -7.99853e-08   1.90231e-07 DIIS
   @DF-RHF iter   8:   -56.22449997778330   -4.12917e-09   3.01198e-08 DIIS
   @DF-RHF iter   9:   -56.22449997788630   -1.03000e-10   8.39186e-09 DIIS
  Energy and wave function converged.


  ==> Post-Iterations <==

    Orbital Energies [Eh]
    ---------------------

    Doubly Occupied:                                                      

       1A    -15.538750     2A     -1.139344     3A     -0.630604  
       4A     -0.630602     5A     -0.425239  

    Virtual:                                                              

       6A      0.099052     7A      0.125316     8A      0.156522  
       9A      0.156522    10A      0.215586    11A      0.215586  
      12A      0.247423    13A      0.326792    14A      0.326793  
      15A      0.333054    16A      0.400648    17A      0.510746  
      18A      0.522038    19A      0.522039    20A      0.545159  
      21A      0.545160    22A      0.569994    23A      0.701779  
      24A      0.747275    25A      0.747275    26A      0.767322  
      27A      0.767322    28A      0.789505    29A      0.789505  
      30A      0.861669    31A      0.868924    32A      0.912172  
      33A      0.912173    34A      0.950537    35A      0.992290  
      36A      0.992291    37A      0.994242    38A      1.076701  
      39A      1.076703    40A      1.086591    41A      1.174794  
      42A      1.174794    43A      1.261022    44A      1.308896  
      45A      1.346412    46A      1.346413    47A      1.406941  
      48A      1.478984    49A      1.478984    50A      1.485321  
      51A      1.737579    52A      1.789854    53A      1.789854  
      54A      1.814186    55A      1.814386    56A      1.899993  
      57A      1.899993    58A      1.946803    59A      2.075448  
      60A      2.075448    61A      2.181351    62A      2.181352  
      63A      2.261386    64A      2.319913    65A      2.319913  
      66A      2.344461    67A      2.367881    68A      2.396472  
      69A      2.409551    70A      2.409553    71A      2.414693  
      72A      2.414693    73A      2.441627    74A      2.441627  
      75A      2.516198    76A      2.516198    77A      2.553299  
      78A      2.597160    79A      2.597162    80A      2.651211  
      81A      2.662924    82A      2.662926    83A      2.757176  
      84A      2.769286    85A      2.769286    86A      2.883002  
      87A      2.888379    88A      2.888380    89A      2.947475  
      90A      3.085444    91A      3.085445    92A      3.090767  
      93A      3.124808    94A      3.124808    95A      3.208401  
      96A      3.208406    97A      3.241300    98A      3.256031  
      99A      3.476549   100A      3.476549   101A      3.546328  
     102A      3.612267   103A      3.809185   104A      3.809187  
     105A      3.918725   106A      3.996604   107A      3.996606  
     108A      4.105632   109A      4.175999   110A      4.228421  
     111A      4.382537   112A      4.382545   113A      4.550361  
     114A      4.550455   115A      4.570469   116A      4.570469  
     117A      4.611366   118A      4.657437   119A      4.657438  
     120A      4.748145   121A      4.748146   122A      5.170402  
     123A      5.369120   124A      5.369120   125A      5.434129  
     126A      5.434136   127A      5.569937   128A      5.571590  
     129A      5.571591   130A      5.769701   131A      5.836912  
     132A      5.837091   133A      5.847287   134A      5.847287  
     135A      5.894156   136A      5.894157   137A      6.177649  
     138A      6.177651   139A      6.234667   140A      6.272891  
     141A      6.272895   142A      6.286212   143A      6.334420  
     144A      6.396975   145A      6.396983   146A      6.422703  
     147A      6.422703   148A      6.441508   149A      6.446285  
     150A      6.659920   151A      6.659921   152A      6.719402  
     153A      6.798474   154A      6.855643   155A      6.934389  
     156A      6.934394   157A      7.045554   158A      7.118496  
     159A      7.118497   160A      7.176996   161A      7.176999  
     162A      7.273440   163A      7.395356   164A      7.395367  
     165A      7.625169   166A      7.625170   167A      7.687701  
     168A      7.695714   169A      7.695718   170A      7.706332  
     171A      7.965284   172A      8.002097   173A      8.002097  
     174A      8.063146   175A      8.138535   176A      8.138537  
     177A      8.168754   178A      8.168754   179A      8.284290  
     180A      8.339156   181A      8.364442   182A      8.364449  
     183A      8.466580   184A      8.512626   185A      8.522121  
     186A      8.522122   187A      8.623557   188A      8.668575  
     189A      8.730235   190A      8.730238   191A      8.866366  
     192A      8.873477   193A      8.873484   194A      8.963719  
     195A      8.963721   196A      9.080474   197A      9.080478  
     198A      9.097952   199A      9.353419   200A      9.405130  
     201A      9.405131   202A      9.547743   203A      9.547753  
     204A      9.691103   205A      9.691105   206A      9.986271  
     207A      9.986274   208A     10.037022   209A     10.138781  
     210A     10.138786   211A     10.271904   212A     10.310225  
     213A     10.432617   214A     10.553475   215A     10.553477  
     216A     10.695808   217A     11.633199   218A     11.712784  
     219A     11.712785   220A     12.036220   221A     12.139006  
     222A     12.139012   223A     12.332171   224A     12.332185  
     225A     12.360387   226A     12.473273   227A     14.876050  
     228A     14.876051   229A     15.552954   230A     15.739310  
     231A     21.726237   232A     21.726237   233A     21.744105  
     234A     21.744105   235A     21.865550   236A     21.865550  
     237A     21.978464   238A     22.550313   239A     35.841141  
     240A     39.458896   241A     85.679876   242A    118.201367  
     243A    118.201367   244A    118.241588   245A    200.584368  
     246A    234.171766   247A   1052.101727  

    Final Occupation by Irrep:
              A 
    DOCC [     5 ]
    NA   [     5 ]
    NB   [     5 ]

  @DF-RHF Final Energy:   -56.22449997788630

   => Energetics <=

    Nuclear Repulsion Energy =             11.9475428385057647
    One-Electron Energy =                 -99.6150050931575208
    Two-Electron Energy =                  31.4429622767654564
    Total Energy =                        -56.2244999778862962

Computation Completed


Properties will be evaluated at   0.000000,   0.000000,   0.000000 [a0]

Properties computed using the SCF density matrix


 Multipole Moments:

 ------------------------------------------------------------------------------------
     Multipole            Electronic (a.u.)      Nuclear  (a.u.)        Total (a.u.)
 ------------------------------------------------------------------------------------

 L = 1.  Multiply by 2.5417464519 to convert [e a0] to [Debye]
 Dipole X            :         -0.0000126            0.0000153            0.0000027
 Dipole Y            :         40.9707912          -41.5857310           -0.6149398
 Dipole Z            :          0.0000000            0.0000000            0.0000000
 Magnitude           :                                                    0.6149398

 ------------------------------------------------------------------------------------

*** tstop() called on cmpsrv002 at Thu Sep 19 14:21:35 2024
Module time:
	user time   =       9.85 seconds =       0.16 minutes
	system time =       0.84 seconds =       0.01 minutes
	total time  =         75 seconds =       1.25 minutes
Total time:
	user time   =      31.24 seconds =       0.52 minutes
	system time =       3.01 seconds =       0.05 minutes
	total time  =        326 seconds =       5.43 minutes

         ---------------------------------------------------------
                        SAPT(DFT): delta HF Segment                

                   by Daniel G. A. Smith and Rob Parrish           
         ---------------------------------------------------------


  ==> Preparing SAPT Data Cache <== 

  ==> DiskDFJK: Density-Fitted J/K Matrices <==

    J tasked:                  Yes
    K tasked:                  Yes
    wK tasked:                  No
    OpenMP threads:              4
    Integrals threads:           4
    Memory [MiB]:             5722
    Algorithm:                Core
    Integral Cache:           SAVE
    Schwarz Cutoff:          1E-12
    Fitting Condition:       1E-10

   => Auxiliary Basis Set <=

  Basis Set: (THIS_BASIS AUX)
    Blend: DEF2-UNIVERSAL-JKFIT
    Number of shells: 87
    Number of basis functions: 277
    Number of Cartesian functions: 328
    Spherical Harmonics?: true
    Max angular momentum: 4


  ==> E10 Electostatics <== 

    Elst10,r                        -28.74106295 [mEh]

  ==> E10 Exchange <== 

    Exch10(S^2)                      33.81934611 [mEh]
    Exch10                           34.72885953 [mEh]

  ==> E20 Induction <== 

   => Uncoupled Induction <= 

    Ind20,u (A<-B)                   -4.27854437 [mEh]
    Ind20,u (A->B)                  -10.12646626 [mEh]
    Ind20,u                         -14.40501063 [mEh]
    Exch-Ind20,u (A<-B)               2.51042516 [mEh]
    Exch-Ind20,u (A->B)               5.46324832 [mEh]
    Exch-Ind20,u                      7.97367348 [mEh]
    Exch-Ind20,u (A<-B) (S^inf)       2.65806558 [mEh]
    Exch-Ind20,u (A->B) (S^inf)       5.85279853 [mEh]
    Exch-Ind20,u (S^inf)              8.51086411 [mEh]

   => Coupled Induction <= 

   ---------------------------------------------------
              SAPT Coupled Induction Solver           
   ---------------------------------------------------
    Maxiter             =          20
    Convergence         =   1.000E-06
   ---------------------------------------------------
     Iter       (A<-B)           (B->A)      Time [s]
   ---------------------------------------------------
    Guess    1.366406e-01     1.660680e-01          0
        1    4.925569e-02     5.081802e-02          0
        2    6.737830e-03     1.477211e-02          0
        3    2.734451e-03     4.065829e-03          0
        4    6.345758e-04     7.829939e-04          0
        5    1.015823e-04     1.303950e-04          1
        6    1.956900e-05     1.850231e-05          1
        7    3.389178e-06     3.849346e-06          1
        8    4.515850e-07*    6.912496e-07*         1
   ---------------------------------------------------

    Ind20,r (A<-B)                   -4.79778393 [mEh]
    Ind20,r (A->B)                  -13.01509947 [mEh]
    Ind20,r                         -17.81288341 [mEh]
    Exch-Ind20,r (A<-B)               2.90610179 [mEh]
    Exch-Ind20,r (A->B)               7.49107424 [mEh]
    Exch-Ind20,r                     10.39717603 [mEh]
    Exch-Ind20,r (A<-B) (S^inf)       3.07965815 [mEh]
    Exch-Ind20,r (A->B) (S^inf)       8.04068999 [mEh]
    Exch-Ind20,r (S^inf)             11.12034814 [mEh]

   Partial SAPT(HF) Results, to compute Delta HF (dHF)
  ---------------------------------------------------------------------------------------------------------
    Electrostatics                  -28.74106295 [mEh]    -18.03528929 [kcal/mol]    -75.45965037 [kJ/mol]
      Elst10,r                      -28.74106295 [mEh]    -18.03528929 [kcal/mol]    -75.45965037 [kJ/mol]

    Exchange                         34.72885953 [mEh]     21.79268837 [kcal/mol]     91.18060814 [kJ/mol]
      Exch10                         34.72885953 [mEh]     21.79268837 [kcal/mol]     91.18060814 [kJ/mol]
      Exch10(S^2)                    33.81934611 [mEh]     21.22196008 [kcal/mol]     88.79268098 [kJ/mol]

    Induction (no dHF)               -7.41570738 [mEh]     -4.65342664 [kcal/mol]    -19.46993705 [kJ/mol]
      Ind20,r                       -17.81288341 [mEh]    -11.17775309 [kcal/mol]    -46.76771895 [kJ/mol]
      Exch-Ind20,r                   10.39717603 [mEh]      6.52432646 [kcal/mol]     27.29778190 [kJ/mol]
      Induction (A<-B) (no dHF)      -1.89168215 [mEh]     -1.18704847 [kcal/mol]     -4.96661080 [kJ/mol]
      Induction (A->B) (no dHF)      -5.52402523 [mEh]     -3.46637817 [kcal/mol]    -14.50332626 [kJ/mol]

    Subtotal SAPT(HF)                -1.42791080 [mEh]     -0.89602755 [kcal/mol]     -3.74897928 [kJ/mol]
    Total HF                        -10.07039031 [mEh]     -6.31926532 [kcal/mol]    -26.43980612 [kJ/mol]
    Delta HF                         -8.64247951 [mEh]     -5.42323777 [kcal/mol]    -22.69082683 [kJ/mol]
  ---------------------------------------------------------------------------------------------------------
   Partial SAPT(HF) Results, alternate SAPT0-like display
  ---------------------------------------------------------------------------------------------------------
    Induction                       -16.05818689 [mEh]    -10.07666441 [kcal/mol]    -42.16076388 [kJ/mol]
      Ind20,r                       -17.81288341 [mEh]    -11.17775309 [kcal/mol]    -46.76771895 [kJ/mol]
      Exch-Ind20,r                   10.39717603 [mEh]      6.52432646 [kcal/mol]     27.29778190 [kJ/mol]
      delta HF,r (2)                 -8.64247951 [mEh]     -5.42323777 [kcal/mol]    -22.69082683 [kJ/mol]
      Induction (A<-B)               -4.09630315 [mEh]     -2.57046903 [kcal/mol]    -10.75484243 [kJ/mol]
      Induction (A->B)              -11.96188375 [mEh]     -7.50619538 [kcal/mol]    -31.40592146 [kJ/mol]
  ---------------------------------------------------------------------------------------------------------
   => Libint2 <=

    Primary   basis highest AM E, G, H:  6, 6, 3
    Auxiliary basis highest AM E, G, H:  7, 7, 4
    Onebody   basis highest AM E, G, H:  -, -, -
    Solid Harmonics ordering:            Gaussian

*** tstart() called on cmpsrv002
*** at Thu Sep 19 14:21:38 2024

   => Loading Basis Set <=

    Name: THIS_BASIS
    Role: ORBITAL
    Keyword: BASIS
    atoms 1, 4-6 entry H          line    15 file /home/vance/anaconda3/envs/p4env/share/psi4/basis/def2-qzvp.gbs 
    atoms 2      entry CL         line   809 file /home/vance/anaconda3/envs/p4env/share/psi4/basis/def2-qzvp.gbs 
    atoms 3      entry N          line   242 file /home/vance/anaconda3/envs/p4env/share/psi4/basis/def2-qzvp.gbs 


         ---------------------------------------------------------
                          SAPT(DFT): DFT Monomer A                 
         ---------------------------------------------------------
                                   SCF
               by Justin Turney, Rob Parrish, Andy Simmonett
                          and Daniel G. A. Smith
                              RKS Reference
                        4 Threads,   7629 MiB Core
         ---------------------------------------------------------

  ==> Geometry <==

    Molecular point group: c1
    Full point group: Cs

    Geometry (in Angstrom), charge = 0, multiplicity = 1:

       Center              X                  Y                   Z               Mass       
    ------------   -----------------  -----------------  -----------------  -----------------
         H           -0.000000190144    -0.285039115064     0.000000000000     1.007825032230
         CL          -0.000000190144     1.058310884936     0.000000000000    34.968852682000
      Gh(N)          -0.000000190144    -2.092919115064     0.000000000000    14.003074004430
      Gh(H)          -0.473180190144    -2.451929115064     0.819580000000     1.007825032230
      Gh(H)          -0.473180190144    -2.451929115064    -0.819580000000     1.007825032230
      Gh(H)           0.946369809856    -2.451929115064     0.000000000000     1.007825032230

  Running in c1 symmetry.

  Rotational constants: A =      6.22544  B =      0.14034  C =      0.14034 [cm^-1]
  Rotational constants: A = 186633.95025  B =   4207.40693  C =   4207.40665 [MHz]
  Nuclear repulsion =    6.696700473733577

  Charge       = 0
  Multiplicity = 1
  Electrons    = 18
  Nalpha       = 9
  Nbeta        = 9

  ==> Algorithm <==

  SCF Algorithm Type is DF.
  DIIS enabled.
  MOM disabled.
  Fractional occupation disabled.
  Guess Type is SAD.
  Energy threshold   = 1.00e-08
  Density threshold  = 1.00e-08
  Integral threshold = 1.00e-12

  ==> Primary Basis <==

  Basis Set: THIS_BASIS
    Blend: DEF2-QZVP
    Number of shells: 79
    Number of basis functions: 247
    Number of Cartesian functions: 298
    Spherical Harmonics?: true
    Max angular momentum: 4

  ==> DFT Potential <==

   => LibXC <=

    Version 6.2.2
    S. Lehtola, C. Steigemann, M. J.T. Oliveira, and M. A.L. Marques.,  SoftwareX 7, 15 (2018) (10.1016/j.softx.2017.11.002)

   => Composite Functional: PBE0 <= 

    PBE0 Hyb-GGA Exchange-Correlation Functional

    C. Adamo and V. Barone.,  J. Chem. Phys. 110, 6158 (1999) (10.1063/1.478522)
    M. Ernzerhof and G. E. Scuseria.,  J. Chem. Phys. 110, 5029 (1999) (10.1063/1.478401)

    Deriv               =              1
    GGA                 =           TRUE
    Meta                =          FALSE

    Exchange Hybrid     =           TRUE
    MP2 Hybrid          =          FALSE

   => Exchange Functionals <=

    0.7500   Perdew, Burke & Ernzerhof

   => Exact (HF) Exchange <=

    0.2500               HF 

   => Correlation Functionals <=

    1.0000   Perdew, Burke & Ernzerhof

   => LibXC Density Thresholds  <==

    XC_HYB_GGA_XC_PBEH:  1.00E-15 

   => Asymptotic Correction <=

    X Functional        =    XC_GGA_X_LB
    C Functional        =   XC_LDA_C_VWN
    Bulk Shift          =       0.116251
    GRAC Alpha          =       0.500000
    GRAC Beta           =      40.000000

   => Molecular Quadrature <=

    Radial Scheme          =       TREUTLER
    Pruning Scheme         =           NONE
    Nuclear Scheme         =       TREUTLER

    Blocking Scheme        =         OCTREE
    BS radius alpha        =              1
    Pruning alpha          =              1
    Radial Points          =             75
    Spherical Points       =            302
    Total Points           =         130495
    Total Blocks           =           1039
    Max Points             =            256
    Max Functions          =            234
    Weights Tolerance      =       1.00E-15

   => Loading Basis Set <=

    Name: (THIS_BASIS AUX)
    Role: JKFIT
    Keyword: DF_BASIS_SCF
    atoms 1, 4-6 entry H          line    18 file /home/vance/anaconda3/envs/p4env/share/psi4/basis/def2-universal-jkfit.gbs 
    atoms 2      entry CL         line   986 file /home/vance/anaconda3/envs/p4env/share/psi4/basis/def2-universal-jkfit.gbs 
    atoms 3      entry N          line   258 file /home/vance/anaconda3/envs/p4env/share/psi4/basis/def2-universal-jkfit.gbs 

  ==> Integral Setup <==

  ==> DiskDFJK: Density-Fitted J/K Matrices <==

    J tasked:                  Yes
    K tasked:                  Yes
    wK tasked:                  No
    OpenMP threads:              4
    Integrals threads:           4
    Memory [MiB]:             4992
    Algorithm:                Core
    Integral Cache:           SAVE
    Schwarz Cutoff:          1E-12
    Fitting Condition:       1E-10

   => Auxiliary Basis Set <=

  Basis Set: (THIS_BASIS AUX)
    Blend: DEF2-UNIVERSAL-JKFIT
    Number of shells: 87
    Number of basis functions: 277
    Number of Cartesian functions: 328
    Spherical Harmonics?: true
    Max angular momentum: 4

  Cached 100.0% of DFT collocation blocks in 0.712 [GiB].

  Minimum eigenvalue in the overlap matrix is 1.1551837083E-04.
  Reciprocal condition number of the overlap matrix is 1.3903214697E-05.
    Using symmetric orthogonalization.

  ==> Pre-Iterations <==

  SCF Guess: Superposition of Atomic Densities via on-the-fly atomic UHF (no occupation information).

   -------------------------
    Irrep   Nso     Nmo    
   -------------------------
     A        247     247 
   -------------------------
    Total     247     247
   -------------------------

  ==> Iterations <==

                           Total Energy        Delta E     RMS |[F,P]|

   @DF-RKS iter SAD:  -460.52654638545283   -4.60527e+02   0.00000e+00 
   @DF-RKS iter   1:  -460.65203831758004   -1.25492e-01   1.20686e-03 DIIS/ADIIS
   @DF-RKS iter   2:  -460.65628338654000   -4.24507e-03   1.00375e-03 DIIS/ADIIS
   @DF-RKS iter   3:  -460.67720925382014   -2.09259e-02   9.25680e-05 DIIS
   @DF-RKS iter   4:  -460.67747358663996   -2.64333e-04   1.84931e-05 DIIS
   @DF-RKS iter   5:  -460.67748322814788   -9.64151e-06   2.58052e-06 DIIS
   @DF-RKS iter   6:  -460.67748287505970    3.53088e-07   1.27033e-07 DIIS
   @DF-RKS iter   7:  -460.67748287155035    3.50934e-09   7.74448e-09 DIIS
  Energy and wave function converged.


  ==> Post-Iterations <==

   Electrons on quadrature grid:
      Ntotal   =   17.9999995926 ; deviation = -4.074e-07 

    Orbital Energies [Eh]
    ---------------------

    Doubly Occupied:                                                      

       1A   -101.839155     2A     -9.660355     3A     -7.395075  
       4A     -7.386735     5A     -7.386735     6A     -0.975564  
       7A     -0.595411     8A     -0.462806     9A     -0.462806  

    Virtual:                                                              

      10A     -0.130148    11A     -0.014403    12A      0.008169  
      13A      0.022763    14A      0.022765    15A      0.079766  
      16A      0.104424    17A      0.104424    18A      0.133579  
      19A      0.133580    20A      0.203325    21A      0.212976  
      22A      0.212976    23A      0.237440    24A      0.250850  
      25A      0.250851    26A      0.375493    27A      0.419558  
      28A      0.419560    29A      0.478948    30A      0.502501  
      31A      0.502503    32A      0.586172    33A      0.672574  
      34A      0.672576    35A      0.700706    36A      0.799261  
      37A      0.810298    38A      0.810302    39A      0.831426  
      40A      0.840898    41A      0.943549    42A      0.943553  
      43A      0.973156    44A      0.973165    45A      0.989077  
      46A      1.002124    47A      1.002125    48A      1.044413  
      49A      1.044414    50A      1.086573    51A      1.086579  
      52A      1.106875    53A      1.128137    54A      1.168044  
      55A      1.168045    56A      1.207541    57A      1.208031  
      58A      1.225991    59A      1.225996    60A      1.276139  
      61A      1.295393    62A      1.295393    63A      1.336963  
      64A      1.617904    65A      1.635779    66A      1.635780  
      67A      1.825859    68A      1.947220    69A      1.947220  
      70A      1.959890    71A      2.077896    72A      2.077898  
      73A      2.178762    74A      2.178767    75A      2.193476  
      76A      2.350225    77A      2.373561    78A      2.373563  
      79A      2.397505    80A      2.397507    81A      2.441892  
      82A      2.493368    83A      2.493371    84A      2.554638  
      85A      2.581072    86A      2.581085    87A      2.639901  
      88A      2.739841    89A      2.739842    90A      2.807944  
      91A      2.813984    92A      2.813987    93A      2.833339  
      94A      2.833339    95A      2.851112    96A      2.970857  
      97A      3.059040    98A      3.098372    99A      3.098372  
     100A      3.168015   101A      3.182416   102A      3.182417  
     103A      3.295253   104A      3.295260   105A      3.297425  
     106A      3.297433   107A      3.316670   108A      3.428491  
     109A      3.453900   110A      3.454451   111A      3.483867  
     112A      3.483867   113A      3.531106   114A      3.595830  
     115A      3.595833   116A      3.613217   117A      3.613218  
     118A      3.740576   119A      3.753587   120A      3.753587  
     121A      3.799466   122A      3.799466   123A      3.805398  
     124A      3.805672   125A      3.865567   126A      3.865569  
     127A      4.078464   128A      4.078464   129A      4.080878  
     130A      4.129042   131A      4.208292   132A      4.252731  
     133A      4.380398   134A      4.380403   135A      4.573013  
     136A      4.573015   137A      4.573239   138A      4.814981  
     139A      4.931422   140A      4.931429   141A      5.247878  
     142A      5.677757   143A      5.683466   144A      5.854149  
     145A      5.854154   146A      6.205596   147A      6.205602  
     148A      6.328461   149A      6.328466   150A      6.342884  
     151A      6.342885   152A      6.363404   153A      6.432081  
     154A      6.642024   155A      6.642030   156A      6.915868  
     157A      6.915869   158A      6.917280   159A      7.067971  
     160A      7.067975   161A      7.236103   162A      7.236111  
     163A      7.246490   164A      7.282294   165A      7.517596  
     166A      7.526898   167A      7.630671   168A      7.630676  
     169A      7.806008   170A      7.806033   171A      7.828399  
     172A      7.942982   173A      7.942986   174A      8.024427  
     175A      8.057286   176A      8.057289   177A      8.213057  
     178A      8.296527   179A      8.296529   180A      8.438886  
     181A      8.452493   182A      8.452493   183A      8.496420  
     184A      8.496428   185A      8.520458   186A      8.630864  
     187A      8.630873   188A      8.640922   189A      8.673055  
     190A      8.859637   191A      8.867127   192A      8.867131  
     193A      9.026348   194A      9.058618   195A      9.094106  
     196A      9.094112   197A      9.123351   198A      9.198755  
     199A      9.198755   200A      9.346680   201A      9.592303  
     202A      9.592319   203A      9.601755   204A      9.800011  
     205A      9.923939   206A      9.923951   207A     10.059492  
     208A     10.080217   209A     10.080221   210A     10.156340  
     211A     10.518269   212A     10.518270   213A     10.557510  
     214A     10.557511   215A     10.637351   216A     10.637352  
     217A     10.846360   218A     10.846369   219A     11.032491  
     220A     11.256465   221A     11.643663   222A     11.663517  
     223A     11.663529   224A     12.209379   225A     12.209393  
     226A     12.651341   227A     13.536338   228A     13.712270  
     229A     13.712276   230A     14.037494   231A     14.131250  
     232A     14.131257   233A     14.422168   234A     14.422175  
     235A     14.455367   236A     15.981826   237A     18.090271  
     238A     18.090287   239A     25.374921   240A     28.901327  
     241A     41.696147   242A     41.696147   243A     41.844881  
     244A     70.140606   245A     98.447373   246A    318.516282  
     247A    525.937124  

    Final Occupation by Irrep:
              A 
    DOCC [     9 ]
    NA   [     9 ]
    NB   [     9 ]

  @DF-RKS Final Energy:  -460.67748287155035

   => Energetics <=

    Nuclear Repulsion Energy =              6.6967004737335767
    One-Electron Energy =                -649.3450448173308587
    Two-Electron Energy =                 203.4301292930768170
    DFT Exchange-Correlation Energy =     -21.4592678210299042
    Empirical Dispersion Energy =           0.0000000000000000
    VV10 Nonlocal Energy =                  0.0000000000000000
    Total Energy =                       -460.6774828715504100

Computation Completed


Properties will be evaluated at   0.000000,   0.000000,   0.000000 [a0]

Properties computed using the SCF density matrix


 Multipole Moments:

 ------------------------------------------------------------------------------------
     Multipole            Electronic (a.u.)      Nuclear  (a.u.)        Total (a.u.)
 ------------------------------------------------------------------------------------

 L = 1.  Multiply by 2.5417464519 to convert [e a0] to [Debye]
 Dipole X            :          0.0000082           -0.0000065            0.0000017
 Dipole Y            :        -33.9354377           33.4599555           -0.4754822
 Dipole Z            :          0.0000000            0.0000000            0.0000000
 Magnitude           :                                                    0.4754822

 ------------------------------------------------------------------------------------

*** tstop() called on cmpsrv002 at Thu Sep 19 14:23:24 2024
Module time:
	user time   =      16.22 seconds =       0.27 minutes
	system time =       1.01 seconds =       0.02 minutes
	total time  =        106 seconds =       1.77 minutes
Total time:
	user time   =      58.60 seconds =       0.98 minutes
	system time =       4.20 seconds =       0.07 minutes
	total time  =        435 seconds =       7.25 minutes
   => Libint2 <=

    Primary   basis highest AM E, G, H:  6, 6, 3
    Auxiliary basis highest AM E, G, H:  7, 7, 4
    Onebody   basis highest AM E, G, H:  -, -, -
    Solid Harmonics ordering:            Gaussian

*** tstart() called on cmpsrv002
*** at Thu Sep 19 14:23:24 2024

   => Loading Basis Set <=

    Name: THIS_BASIS
    Role: ORBITAL
    Keyword: BASIS
    atoms 1, 4-6 entry H          line    15 file /home/vance/anaconda3/envs/p4env/share/psi4/basis/def2-qzvp.gbs 
    atoms 2      entry CL         line   809 file /home/vance/anaconda3/envs/p4env/share/psi4/basis/def2-qzvp.gbs 
    atoms 3      entry N          line   242 file /home/vance/anaconda3/envs/p4env/share/psi4/basis/def2-qzvp.gbs 


         ---------------------------------------------------------
                          SAPT(DFT): DFT Monomer B                 
         ---------------------------------------------------------
                                   SCF
               by Justin Turney, Rob Parrish, Andy Simmonett
                          and Daniel G. A. Smith
                              RKS Reference
                        4 Threads,   7629 MiB Core
         ---------------------------------------------------------

  ==> Geometry <==

    Molecular point group: c1
    Full point group: Cs

    Geometry (in Angstrom), charge = 0, multiplicity = 1:

       Center              X                  Y                   Z               Mass       
    ------------   -----------------  -----------------  -----------------  -----------------
      Gh(H)          -0.000000190144    -0.285039115064     0.000000000000     1.007825032230
      Gh(CL)         -0.000000190144     1.058310884936     0.000000000000    34.968852682000
         N           -0.000000190144    -2.092919115064     0.000000000000    14.003074004430
         H           -0.473180190144    -2.451929115064     0.819580000000     1.007825032230
         H           -0.473180190144    -2.451929115064    -0.819580000000     1.007825032230
         H            0.946369809856    -2.451929115064     0.000000000000     1.007825032230

  Running in c1 symmetry.

  Rotational constants: A =      6.22544  B =      0.14034  C =      0.14034 [cm^-1]
  Rotational constants: A = 186633.95025  B =   4207.40693  C =   4207.40665 [MHz]
  Nuclear repulsion =   11.947542838505765

  Charge       = 0
  Multiplicity = 1
  Electrons    = 10
  Nalpha       = 5
  Nbeta        = 5

  ==> Algorithm <==

  SCF Algorithm Type is DF.
  DIIS enabled.
  MOM disabled.
  Fractional occupation disabled.
  Guess Type is SAD.
  Energy threshold   = 1.00e-08
  Density threshold  = 1.00e-08
  Integral threshold = 1.00e-12

  ==> Primary Basis <==

  Basis Set: THIS_BASIS
    Blend: DEF2-QZVP
    Number of shells: 79
    Number of basis functions: 247
    Number of Cartesian functions: 298
    Spherical Harmonics?: true
    Max angular momentum: 4

  ==> DFT Potential <==

   => LibXC <=

    Version 6.2.2
    S. Lehtola, C. Steigemann, M. J.T. Oliveira, and M. A.L. Marques.,  SoftwareX 7, 15 (2018) (10.1016/j.softx.2017.11.002)

   => Composite Functional: PBE0 <= 

    PBE0 Hyb-GGA Exchange-Correlation Functional

    C. Adamo and V. Barone.,  J. Chem. Phys. 110, 6158 (1999) (10.1063/1.478522)
    M. Ernzerhof and G. E. Scuseria.,  J. Chem. Phys. 110, 5029 (1999) (10.1063/1.478401)

    Deriv               =              1
    GGA                 =           TRUE
    Meta                =          FALSE

    Exchange Hybrid     =           TRUE
    MP2 Hybrid          =          FALSE

   => Exchange Functionals <=

    0.7500   Perdew, Burke & Ernzerhof

   => Exact (HF) Exchange <=

    0.2500               HF 

   => Correlation Functionals <=

    1.0000   Perdew, Burke & Ernzerhof

   => LibXC Density Thresholds  <==

    XC_HYB_GGA_XC_PBEH:  1.00E-15 

   => Asymptotic Correction <=

    X Functional        =    XC_GGA_X_LB
    C Functional        =   XC_LDA_C_VWN
    Bulk Shift          =       0.113162
    GRAC Alpha          =       0.500000
    GRAC Beta           =      40.000000

   => Molecular Quadrature <=

    Radial Scheme          =       TREUTLER
    Pruning Scheme         =           NONE
    Nuclear Scheme         =       TREUTLER

    Blocking Scheme        =         OCTREE
    BS radius alpha        =              1
    Pruning alpha          =              1
    Radial Points          =             75
    Spherical Points       =            302
    Total Points           =         130495
    Total Blocks           =           1039
    Max Points             =            256
    Max Functions          =            234
    Weights Tolerance      =       1.00E-15

   => Loading Basis Set <=

    Name: (THIS_BASIS AUX)
    Role: JKFIT
    Keyword: DF_BASIS_SCF
    atoms 1, 4-6 entry H          line    18 file /home/vance/anaconda3/envs/p4env/share/psi4/basis/def2-universal-jkfit.gbs 
    atoms 2      entry CL         line   986 file /home/vance/anaconda3/envs/p4env/share/psi4/basis/def2-universal-jkfit.gbs 
    atoms 3      entry N          line   258 file /home/vance/anaconda3/envs/p4env/share/psi4/basis/def2-universal-jkfit.gbs 

  ==> Integral Setup <==

  ==> DiskDFJK: Density-Fitted J/K Matrices <==

    J tasked:                  Yes
    K tasked:                  Yes
    wK tasked:                  No
    OpenMP threads:              4
    Integrals threads:           4
    Memory [MiB]:             4992
    Algorithm:                Core
    Integral Cache:           SAVE
    Schwarz Cutoff:          1E-12
    Fitting Condition:       1E-10

   => Auxiliary Basis Set <=

  Basis Set: (THIS_BASIS AUX)
    Blend: DEF2-UNIVERSAL-JKFIT
    Number of shells: 87
    Number of basis functions: 277
    Number of Cartesian functions: 328
    Spherical Harmonics?: true
    Max angular momentum: 4

  Cached 100.0% of DFT collocation blocks in 0.712 [GiB].

  Minimum eigenvalue in the overlap matrix is 1.1551837083E-04.
  Reciprocal condition number of the overlap matrix is 1.3903214697E-05.
    Using symmetric orthogonalization.

  ==> Pre-Iterations <==

  SCF Guess: Superposition of Atomic Densities via on-the-fly atomic UHF (no occupation information).

   -------------------------
    Irrep   Nso     Nmo    
   -------------------------
     A        247     247 
   -------------------------
    Total     247     247
   -------------------------

  ==> Iterations <==

                           Total Energy        Delta E     RMS |[F,P]|

   @DF-RKS iter SAD:   -56.06961038455504   -5.60696e+01   0.00000e+00 
   @DF-RKS iter   1:   -56.28030996471360   -2.10700e-01   3.14604e-03 ADIIS/DIIS
   @DF-RKS iter   2:   -56.02072591860438    2.59584e-01   4.12409e-03 ADIIS/DIIS
   @DF-RKS iter   3:   -56.51878635697393   -4.98060e-01   2.19227e-04 ADIIS/DIIS
   @DF-RKS iter   4:   -56.52025131667954   -1.46496e-03   1.94241e-05 DIIS
   @DF-RKS iter   5:   -56.52025875689392   -7.44021e-06   5.10273e-06 DIIS
   @DF-RKS iter   6:   -56.52025880665450   -4.97606e-08   1.95707e-07 DIIS
   @DF-RKS iter   7:   -56.52025876693985    3.97146e-08   2.58820e-08 DIIS
   @DF-RKS iter   8:   -56.52025875733933    9.60053e-09   2.93134e-09 DIIS
  Energy and wave function converged.


  ==> Post-Iterations <==

   Electrons on quadrature grid:
      Ntotal   =    9.9999943373 ; deviation = -5.663e-06 

    Orbital Energies [Eh]
    ---------------------

    Doubly Occupied:                                                      

       1A    -14.471829     2A     -0.987803     3A     -0.590358  
       4A     -0.590356     5A     -0.392614  

    Virtual:                                                              

       6A     -0.084410     7A     -0.015484     8A     -0.015483  
       9A      0.008373    10A      0.079937    11A      0.079943  
      12A      0.113953    13A      0.145660    14A      0.145663  
      15A      0.151380    16A      0.262738    17A      0.271178  
      18A      0.271182    19A      0.275658    20A      0.309719  
      21A      0.309720    22A      0.380314    23A      0.518235  
      24A      0.584067    25A      0.584071    26A      0.615343  
      27A      0.624230    28A      0.624245    29A      0.660015  
      30A      0.660044    31A      0.672547    32A      0.702781  
      33A      0.702787    34A      0.781860    35A      0.781870  
      36A      0.784212    37A      0.818834    38A      0.818860  
      39A      0.818868    40A      0.860906    41A      0.937370  
      42A      0.937381    43A      1.033665    44A      1.053114  
      45A      1.053116    46A      1.065578    47A      1.079802  
      48A      1.182243    49A      1.182245    50A      1.269974  
      51A      1.530985    52A      1.600053    53A      1.600056  
      54A      1.657141    55A      1.657143    56A      1.677621  
      57A      1.700264    58A      1.700728    59A      1.912772  
      60A      1.912776    61A      1.957590    62A      1.957593  
      63A      2.014263    64A      2.042254    65A      2.049754  
      66A      2.049757    67A      2.075907    68A      2.115898  
      69A      2.115908    70A      2.164994    71A      2.164995  
      72A      2.190069    73A      2.238333    74A      2.238334  
      75A      2.299979    76A      2.299985    77A      2.330382  
      78A      2.330389    79A      2.332936    80A      2.356726  
      81A      2.356730    82A      2.374524    83A      2.491065  
      84A      2.491075    85A      2.505507    86A      2.534686  
      87A      2.577843    88A      2.577844    89A      2.623819  
      90A      2.749603    91A      2.776901    92A      2.776907  
      93A      2.808724    94A      2.808732    95A      2.862234  
      96A      2.862244    97A      2.901547    98A      2.954480  
      99A      3.133372   100A      3.133374   101A      3.181777  
     102A      3.304101   103A      3.500325   104A      3.500325  
     105A      3.601949   106A      3.603004   107A      3.603011  
     108A      3.776056   109A      3.822400   110A      3.928424  
     111A      3.958301   112A      3.958318   113A      4.164153  
     114A      4.198260   115A      4.198261   116A      4.426857  
     117A      4.427095   118A      4.454699   119A      4.454707  
     120A      4.599178   121A      4.599190   122A      4.728842  
     123A      4.949236   124A      4.949245   125A      5.223561  
     126A      5.223562   127A      5.378469   128A      5.407833  
     129A      5.407833   130A      5.598904   131A      5.718854  
     132A      5.719038   133A      5.727805   134A      5.727817  
     135A      5.751885   136A      5.751890   137A      5.754768  
     138A      5.754779   139A      5.848759   140A      5.848762  
     141A      5.898983   142A      5.900385   143A      5.940821  
     144A      5.940832   145A      6.134495   146A      6.220769  
     147A      6.226013   148A      6.295507   149A      6.299746  
     150A      6.299748   151A      6.343862   152A      6.439609  
     153A      6.439618   154A      6.498780   155A      6.498783  
     156A      6.627655   157A      6.684113   158A      6.684119  
     159A      6.696969   160A      6.830172   161A      6.865853  
     162A      6.865865   163A      6.954490   164A      6.954500  
     165A      7.162761   166A      7.162766   167A      7.215683  
     168A      7.220805   169A      7.220818   170A      7.257810  
     171A      7.546499   172A      7.566912   173A      7.566919  
     174A      7.573456   175A      7.714723   176A      7.714737  
     177A      7.806747   178A      7.840278   179A      7.840284  
     180A      7.971169   181A      7.971172   182A      7.974242  
     183A      8.044082   184A      8.068475   185A      8.068479  
     186A      8.096086   187A      8.162056   188A      8.170378  
     189A      8.231131   190A      8.231135   191A      8.385767  
     192A      8.385767   193A      8.419365   194A      8.528812  
     195A      8.528815   196A      8.594176   197A      8.731293  
     198A      8.731321   199A      8.871678   200A      9.008249  
     201A      9.008264   202A      9.106530   203A      9.106536  
     204A      9.379170   205A      9.379172   206A      9.484161  
     207A      9.501810   208A      9.501813   209A      9.620563  
     210A      9.620568   211A      9.770973   212A      9.799057  
     213A      9.981382   214A      9.981391   215A     10.131995  
     216A     10.208364   217A     11.046986   218A     11.113290  
     219A     11.113291   220A     11.508467   221A     11.564754  
     222A     11.564759   223A     11.753324   224A     11.753341  
     225A     11.897300   226A     12.089964   227A     14.273992  
     228A     14.273998   229A     15.100818   230A     15.429680  
     231A     21.609931   232A     21.609931   233A     21.625939  
     234A     21.625939   235A     21.741174   236A     21.741174  
     237A     21.862195   238A     22.422281   239A     35.719873  
     240A     38.288989   241A     85.558219   242A    118.079653  
     243A    118.079653   244A    118.117062   245A    197.781637  
     246A    234.052408   247A   1051.976233  

    Final Occupation by Irrep:
              A 
    DOCC [     5 ]
    NA   [     5 ]
    NB   [     5 ]

  @DF-RKS Final Energy:   -56.52025875733933

   => Energetics <=

    Nuclear Repulsion Energy =             11.9475428385057647
    One-Electron Energy =                 -99.6887180949396878
    Two-Electron Energy =                  37.2640927693213797
    DFT Exchange-Correlation Energy =      -6.0431762702267857
    Empirical Dispersion Energy =           0.0000000000000000
    VV10 Nonlocal Energy =                  0.0000000000000000
    Total Energy =                        -56.5202587573393274

Computation Completed


Properties will be evaluated at   0.000000,   0.000000,   0.000000 [a0]

Properties computed using the SCF density matrix


 Multipole Moments:

 ------------------------------------------------------------------------------------
     Multipole            Electronic (a.u.)      Nuclear  (a.u.)        Total (a.u.)
 ------------------------------------------------------------------------------------

 L = 1.  Multiply by 2.5417464519 to convert [e a0] to [Debye]
 Dipole X            :         -0.0000051            0.0000153            0.0000102
 Dipole Y            :         40.9997159          -41.5857310           -0.5860151
 Dipole Z            :          0.0000000            0.0000000            0.0000000
 Magnitude           :                                                    0.5860151

 ------------------------------------------------------------------------------------

*** tstop() called on cmpsrv002 at Thu Sep 19 14:24:51 2024
Module time:
	user time   =      19.06 seconds =       0.32 minutes
	system time =       0.71 seconds =       0.01 minutes
	total time  =         87 seconds =       1.45 minutes
Total time:
	user time   =      77.66 seconds =       1.29 minutes
	system time =       4.91 seconds =       0.08 minutes
	total time  =        522 seconds =       8.70 minutes

         ---------------------------------------------------------
               SAPT(DFT): Intermolecular Interaction Segment       

                   by Daniel G. A. Smith and Rob Parrish           
         ---------------------------------------------------------

  ==> Algorithm <==

   SAPT DFT Functional             PBE0
   Monomer A GRAC Shift        0.116251
   Monomer B GRAC Shift        0.113162
   Delta HF                        True
   JK Algorithm                      DF

  ==> Preparing SAPT Data Cache <== 

  ==> DiskDFJK: Density-Fitted J/K Matrices <==

    J tasked:                  Yes
    K tasked:                  Yes
    wK tasked:                  No
    OpenMP threads:              4
    Integrals threads:           4
    Memory [MiB]:             4992
    Algorithm:                Core
    Integral Cache:           SAVE
    Schwarz Cutoff:          1E-12
    Fitting Condition:       1E-10

   => Auxiliary Basis Set <=

  Basis Set: (THIS_BASIS AUX)
    Blend: DEF2-UNIVERSAL-JKFIT
    Number of shells: 87
    Number of basis functions: 277
    Number of Cartesian functions: 328
    Spherical Harmonics?: true
    Max angular momentum: 4


  ==> E10 Electostatics <== 

    Elst10,r                        -27.64115267 [mEh]

  ==> E10 Exchange <== 

    Exch10(S^2)                      34.74286238 [mEh]
    Exch10                           35.69467203 [mEh]

  ==> E20 Induction <== 

   => Uncoupled Induction <= 

    Ind20,u (A<-B)                   -5.30613006 [mEh]
    Ind20,u (A->B)                  -13.43728357 [mEh]
    Ind20,u                         -18.74341362 [mEh]
    Exch-Ind20,u (A<-B)               3.02729375 [mEh]
    Exch-Ind20,u (A->B)               7.75957208 [mEh]
    Exch-Ind20,u                     10.78686583 [mEh]
    Exch-Ind20,u (A<-B) (S^inf)       3.20902150 [mEh]
    Exch-Ind20,u (A->B) (S^inf)       8.31659417 [mEh]
    Exch-Ind20,u (S^inf)             11.52561568 [mEh]

   => Coupled Induction <= 

   ---------------------------------------------------
              SAPT Coupled Induction Solver           
   ---------------------------------------------------
    Maxiter             =          20
    Convergence         =   1.000E-06
   ---------------------------------------------------
     Iter       (A<-B)           (B->A)      Time [s]
   ---------------------------------------------------
    Guess    2.303220e-01     1.416172e-01          0
        1    3.861956e-02     5.424425e-02          1
        2    9.302731e-03     1.829909e-02          2
        3    2.424233e-03     1.554506e-03          3
        4    2.315461e-04     1.261475e-04          4
        5    3.986147e-05     7.689299e-06          4
        6    2.281495e-06     8.075491e-07*         5
        7    2.310845e-07*    8.075491e-07*         6
   ---------------------------------------------------

    Ind20,r (A<-B)                   -5.07196686 [mEh]
    Ind20,r (A->B)                  -14.32765970 [mEh]
    Ind20,r                         -19.39962656 [mEh]
    Exch-Ind20,r (A<-B)               3.35988578 [mEh]
    Exch-Ind20,r (A->B)               8.69513939 [mEh]
    Exch-Ind20,r                     12.05502517 [mEh]
    Exch-Ind20,r (A<-B) (S^inf)       3.56474299 [mEh]
    Exch-Ind20,r (A->B) (S^inf)       9.32422235 [mEh]
    Exch-Ind20,r (S^inf)             12.88896534 [mEh]
   => Loading Basis Set <=

    Name: (THIS_BASIS AUX)
    Role: RIFIT
    Keyword: DF_BASIS_MP2
    atoms 1, 4-6 entry H          line    23 file /home/vance/anaconda3/envs/p4env/share/psi4/basis/def2-qzvp-ri.gbs 
    atoms 2      entry CL         line  1113 file /home/vance/anaconda3/envs/p4env/share/psi4/basis/def2-qzvp-ri.gbs 
    atoms 3      entry N          line   337 file /home/vance/anaconda3/envs/p4env/share/psi4/basis/def2-qzvp-ri.gbs 



  ==> E20 Dispersion (CHF FDDS) <== 

   Legendre Points:          10
   Lambda Shift:          0.300
   Fxc Kernal:             ALDA
   (P|Fxc|Q) Thresh:  1.000e-06
  DFHelper Memory: AOs need 0.246 GiB; user supplied 5.960 GiB. 
  Using in-core AOs.

  ==> DFHelper <==
    NBF:                             247
    NAux:                            532
    Schwarz Cutoff:                1E-12
    Mask sparsity (%):                 6
    DFH Avail. Memory [GiB]:       5.960
    OpenMP threads:                    4
    Algorithm:                    DIRECT
    AO Core:                        True
    MO Core:                       False
    Hold Metric:                   False
    Metric Power:                  0.000
    Fitting Condition:             1E-12
    Q Shell Max:                      11


  DFHelper Memory: AOs need 0.261 GiB; user supplied 5.960 GiB. 
  Using in-core AOs.


   => Time Integration <= 

       Omega       Weight       Disp20,u         Disp20   time [s]
   2.269e+01    6.667e-02      1.850e-04      1.733e-04          0
   4.147e+00    1.495e-01      3.318e-03      2.986e-03          0
   1.572e+00    2.191e-01      1.042e-02      8.720e-03          1
   7.589e-01    2.693e-01      1.755e-02      1.335e-02          1
   4.049e-01    2.955e-01      1.915e-02      1.343e-02          2
   2.223e-01    2.955e-01      1.543e-02      1.038e-02          2
   1.186e-01    2.693e-01      1.053e-02      6.989e-03          2
   5.727e-02    2.191e-01      6.578e-03      4.346e-03          3
   2.170e-02    1.495e-01      3.690e-03      2.435e-03          3
   3.966e-03    6.667e-02      1.473e-03      9.720e-04          3

    Disp20,u                        -14.05683168 [mEh]
    Disp20                          -10.15097699 [mEh]

  ==> E20 Dispersion (MP2) <== 


    Disp20 (MP2)                    -14.00994900 [mEh]
    Exch-Disp20,u                     3.00060663 [mEh]
    Scaling Scheme                    FIXED
    Scaling Factor                    0.770
    Est. Exch-Disp20,r                2.31046711 [mEh]

   SAPT(DFT) Results
  ---------------------------------------------------------------------------------------------------------
    Electrostatics                  -27.64115267 [mEh]    -17.34508516 [kcal/mol]    -72.57183632 [kJ/mol]
      Elst1,r                       -27.64115267 [mEh]    -17.34508516 [kcal/mol]    -72.57183632 [kJ/mol]

    Exchange                         35.69467203 [mEh]     22.39874486 [kcal/mol]     93.71634851 [kJ/mol]
      Exch1                          35.69467203 [mEh]     22.39874486 [kcal/mol]     93.71634851 [kJ/mol]
      Exch1(S^2)                     34.74286238 [mEh]     21.80147529 [kcal/mol]     91.21737261 [kJ/mol]

    Induction                       -15.98708089 [mEh]    -10.03204472 [kcal/mol]    -41.97407510 [kJ/mol]
      Ind2,r                        -19.39962656 [mEh]    -12.17344945 [kcal/mol]    -50.93371250 [kJ/mol]
      Exch-Ind2,r                    12.05502517 [mEh]      7.56464250 [kcal/mol]     31.65046423 [kJ/mol]
      Induction (A<-B)               -1.71208108 [mEh]     -1.07434710 [kcal/mol]     -4.49506825 [kJ/mol]
      Induction (A->B)               -5.63252031 [mEh]     -3.53445985 [kcal/mol]    -14.78818003 [kJ/mol]
      delta HF,r (2)                 -8.64247951 [mEh]     -5.42323777 [kcal/mol]    -22.69082683 [kJ/mol]

    Dispersion                       -7.84050988 [mEh]     -4.91999423 [kcal/mol]    -20.58525585 [kJ/mol]
      Disp2,r                       -10.15097699 [mEh]     -6.36983423 [kcal/mol]    -26.65138641 [kJ/mol]
      Disp2,u                       -14.00994900 [mEh]     -8.79137573 [kcal/mol]    -36.78311604 [kJ/mol]
      Est. Exch-Disp2,r               2.31046711 [mEh]      1.44984000 [kcal/mol]      6.06613056 [kJ/mol]
      Exch-Disp2,u                    3.00060663 [mEh]      1.88290909 [kcal/mol]      7.87809163 [kJ/mol]

    Total SAPT(DFT)                 -15.77407140 [mEh]     -9.89837925 [kcal/mol]    -41.41481876 [kJ/mol]
  ---------------------------------------------------------------------------------------------------------

*** tstop() called on cmpsrv002 at Thu Sep 19 15:05:04 2024
Module time:
	user time   =     118.97 seconds =       1.98 minutes
	system time =      20.44 seconds =       0.34 minutes
	total time  =       2500 seconds =      41.67 minutes
Total time:
	user time   =     177.40 seconds =       2.96 minutes
	system time =      24.21 seconds =       0.40 minutes
	total time  =       2941 seconds =      49.02 minutes

    Psi4 stopped on: Thursday, 19 September 2024 03:05PM
    Psi4 wall time for execution: 0:49:01.64

*** Psi4 exiting successfully. Buy a developer a beer!
