
    -----------------------------------------------------------------------
          Psi4: An Open-Source Ab Initio Electronic Structure Package
                               Psi4 1.9.1 release

                         Git: Rev {} zzzzzzz 


    D. G. A. Smith, L. A. Burns, A. C. Simmonett, R. M. Parrish,
    M. C. Schieber, R. Galvelis, P. Kraus, H. Kruse, R. Di Remigio,
    A. Alenaizan, A. M. James, S. Lehtola, J. P. Misiewicz, M. Scheurer,
    R. A. Shaw, J. B. Schriber, Y. Xie, Z. L. Glick, D. A. Sirianni,
    J. S. O'Brien, J. M. Waldrop, A. Kumar, E. G. Hohenstein,
    B. P. Pritchard, B. R. Brooks, H. F. Schaefer III, A. Yu. Sokolov,
    K. Patkowski, A. E. DePrince III, U. Bozkaya, R. A. King,
    F. A. Evangelista, J. M. Turney, T. D. Crawford, C. D. Sherrill,
    J. Chem. Phys. 152(18) 184108 (2020). https://doi.org/10.1063/5.0006002

                            Additional Code Authors
    E. T. Seidl, C. L. Janssen, E. F. Valeev, M. L. Leininger,
    J. F. Gonthier, R. M. Richard, H. R. McAlexander, M. Saitow, X. Wang,
    P. Verma, M. H. Lechner, A. Jiang, S. Behnle, A. G. Heide,
    M. F. Herbst, and D. L. Poole

             Previous Authors, Complete List of Code Contributors,
                       and Citations for Specific Modules
    https://github.com/psi4/psi4/blob/master/codemeta.json
    https://github.com/psi4/psi4/graphs/contributors
    http://psicode.org/psi4manual/master/introduction.html#citing-psifour

    -----------------------------------------------------------------------


    Psi4 started on: Thursday, 19 September 2024 02:16PM

    Process ID: 605853
    Host:       cmpsrv002
    PSIDATADIR: /home/vance/anaconda3/envs/p4env/share/psi4
    Memory:     500.0 MiB
    Threads:    8
    
  ==> Input File <==

--------------------------------------------------------------------------
#charge=0 charge_a=0 charge_b=0 selection_a=1-2 selection_b=3-6 scaling=0.95 benchmark_Eint=-9.424 benchmark_unit=kcal/mol group=XH-N
set_num_threads(4)
memory 8 GB
basis this_basis {
    assign    def2-qzvp
}

molecule {
     0 1
    --
     0 1
     H        0.00000       -0.31269        0.00000
    Cl       -0.00000        1.03066        0.00000
    --
     0 1
     N        0.00000       -1.94839        0.00000
     H       -0.47318       -2.30740        0.81958
     H       -0.47318       -2.30740       -0.81958
     H        0.94637       -2.30740        0.00000
}

set {
    sapt_dft_functional     PBE0
    scf_type                DF
    freeze_core             true
    sapt_dft_grac_shift_a    0.116251
    sapt_dft_grac_shift_b    0.113162
    sapt_dft_do_hybrid      true
    do_ind_exch_sinf        true
    do_disp_exch_sinf       true
}

nrg = energy('sapt(DFT)')
--------------------------------------------------------------------------
  Threads set to 4 by Python driver.

  Memory set to   7.451 GiB by Python driver.

Scratch directory: /scratch2/vance/psi4/

*** tstart() called on cmpsrv002
*** at Thu Sep 19 14:16:09 2024

  SAPT does not make use of molecular symmetry, further calculations in C1 point group.

         ---------------------------------------------------------
                            SAPT(DFT) Procedure                    

                           by Daniel G. A. Smith                   
         ---------------------------------------------------------

Warning! The default value of SAPT_DFT_EXCH_DISP_SCALE_SCHEME has changed from DISP to FIXED. Please be careful comparing results with earlier versions. 

  ==> Algorithm <==

   SAPT DFT Functional             PBE0
   Monomer A GRAC Shift        0.116251
   Monomer B GRAC Shift        0.113162
   Delta HF                        True
   JK Algorithm                      DF

   Required computations:
     HF  (Dimer)
     HF  (Monomer A)
     HF  (Monomer B)
     DFT (Monomer A)
     DFT (Monomer B)

   => Libint2 <=

    Primary   basis highest AM E, G, H:  6, 6, 3
    Auxiliary basis highest AM E, G, H:  7, 7, 4
    Onebody   basis highest AM E, G, H:  -, -, -
    Solid Harmonics ordering:            Gaussian

*** tstart() called on cmpsrv002
*** at Thu Sep 19 14:16:09 2024

   => Loading Basis Set <=

    Name: THIS_BASIS
    Role: ORBITAL
    Keyword: BASIS
    atoms 1, 4-6 entry H          line    15 file /home/vance/anaconda3/envs/p4env/share/psi4/basis/def2-qzvp.gbs 
    atoms 2      entry CL         line   809 file /home/vance/anaconda3/envs/p4env/share/psi4/basis/def2-qzvp.gbs 
    atoms 3      entry N          line   242 file /home/vance/anaconda3/envs/p4env/share/psi4/basis/def2-qzvp.gbs 


         ---------------------------------------------------------
                         SAPT(DFT): delta HF Dimer                 
         ---------------------------------------------------------
                                   SCF
               by Justin Turney, Rob Parrish, Andy Simmonett
                          and Daniel G. A. Smith
                              RHF Reference
                        4 Threads,   7629 MiB Core
         ---------------------------------------------------------

  ==> Geometry <==

    Molecular point group: c1
    Full point group: Cs

    Geometry (in Angstrom), charge = 0, multiplicity = 1:

       Center              X                  Y                   Z               Mass       
    ------------   -----------------  -----------------  -----------------  -----------------
         H           -0.000000190144    -0.340349544265     0.000000000000     1.007825032230
         CL          -0.000000190144     1.003000455735     0.000000000000    34.968852682000
         N           -0.000000190144    -1.976049544265     0.000000000000    14.003074004430
         H           -0.473180190144    -2.335059544265     0.819580000000     1.007825032230
         H           -0.473180190144    -2.335059544265    -0.819580000000     1.007825032230
         H            0.946369809856    -2.335059544265     0.000000000000     1.007825032230

  Running in c1 symmetry.

  Rotational constants: A =      6.22544  B =      0.15636  C =      0.15636 [cm^-1]
  Rotational constants: A = 186633.95025  B =   4687.50822  C =   4687.50787 [MHz]
  Nuclear repulsion =   50.544610908595388

  Charge       = 0
  Multiplicity = 1
  Electrons    = 28
  Nalpha       = 14
  Nbeta        = 14

  ==> Algorithm <==

  SCF Algorithm Type is DF.
  DIIS enabled.
  MOM disabled.
  Fractional occupation disabled.
  Guess Type is SAD.
  Energy threshold   = 1.00e-08
  Density threshold  = 1.00e-08
  Integral threshold = 1.00e-12

  ==> Primary Basis <==

  Basis Set: THIS_BASIS
    Blend: DEF2-QZVP
    Number of shells: 79
    Number of basis functions: 247
    Number of Cartesian functions: 298
    Spherical Harmonics?: true
    Max angular momentum: 4

   => Loading Basis Set <=

    Name: (THIS_BASIS AUX)
    Role: JKFIT
    Keyword: DF_BASIS_SCF
    atoms 1, 4-6 entry H          line    18 file /home/vance/anaconda3/envs/p4env/share/psi4/basis/def2-universal-jkfit.gbs 
    atoms 2      entry CL         line   986 file /home/vance/anaconda3/envs/p4env/share/psi4/basis/def2-universal-jkfit.gbs 
    atoms 3      entry N          line   258 file /home/vance/anaconda3/envs/p4env/share/psi4/basis/def2-universal-jkfit.gbs 

  ==> Integral Setup <==

  ==> DiskDFJK: Density-Fitted J/K Matrices <==

    J tasked:                  Yes
    K tasked:                  Yes
    wK tasked:                  No
    OpenMP threads:              4
    Integrals threads:           4
    Memory [MiB]:             5722
    Algorithm:                Core
    Integral Cache:           SAVE
    Schwarz Cutoff:          1E-12
    Fitting Condition:       1E-10

   => Auxiliary Basis Set <=

  Basis Set: (THIS_BASIS AUX)
    Blend: DEF2-UNIVERSAL-JKFIT
    Number of shells: 87
    Number of basis functions: 277
    Number of Cartesian functions: 328
    Spherical Harmonics?: true
    Max angular momentum: 4

  Minimum eigenvalue in the overlap matrix is 1.0813700412E-04.
  Reciprocal condition number of the overlap matrix is 1.2744364375E-05.
    Using symmetric orthogonalization.

  ==> Pre-Iterations <==

  SCF Guess: Superposition of Atomic Densities via on-the-fly atomic UHF (no occupation information).

   -------------------------
    Irrep   Nso     Nmo    
   -------------------------
     A        247     247 
   -------------------------
    Total     247     247
   -------------------------

  ==> Iterations <==

                           Total Energy        Delta E     RMS |[F,P]|

   @DF-RHF iter SAD:  -515.73266215088131   -5.15733e+02   0.00000e+00 
   @DF-RHF iter   1:  -516.25164214011056   -5.18980e-01   1.82983e-03 ADIIS/DIIS
   @DF-RHF iter   2:  -516.32313046520881   -7.14883e-02   8.91182e-04 ADIIS/DIIS
   @DF-RHF iter   3:  -516.34050375861807   -1.73733e-02   1.33636e-04 ADIIS/DIIS
   @DF-RHF iter   4:  -516.34142468408254   -9.20925e-04   5.19005e-05 DIIS
   @DF-RHF iter   5:  -516.34152598869593   -1.01305e-04   1.13392e-05 DIIS
   @DF-RHF iter   6:  -516.34153699075648   -1.10021e-05   2.75021e-06 DIIS
   @DF-RHF iter   7:  -516.34153772916773   -7.38411e-07   7.75165e-07 DIIS
   @DF-RHF iter   8:  -516.34153778110328   -5.19356e-08   2.15306e-07 DIIS
   @DF-RHF iter   9:  -516.34153778356290   -2.45961e-09   4.26546e-08 DIIS
   @DF-RHF iter  10:  -516.34153778371649   -1.53591e-10   7.58494e-09 DIIS
  Energy and wave function converged.


  ==> Post-Iterations <==

    Orbital Energies [Eh]
    ---------------------

    Doubly Occupied:                                                      

       1A   -104.783648     2A    -15.590311     3A    -10.510036  
       4A     -7.977072     5A     -7.975880     6A     -7.975880  
       7A     -1.197644     8A     -1.052569     9A     -0.682827  
      10A     -0.682825    11A     -0.609304    12A     -0.445865  
      13A     -0.423690    14A     -0.423690  

    Virtual:                                                              

      15A      0.084120    16A      0.138123    17A      0.138124  
      18A      0.190620    19A      0.251313    20A      0.268734  
      21A      0.268734    22A      0.333875    23A      0.333875  
      24A      0.334825    25A      0.378173    26A      0.458321  
      27A      0.458322    28A      0.478033    29A      0.485055  
      30A      0.485056    31A      0.537521    32A      0.537521  
      33A      0.593466    34A      0.593467    35A      0.657124  
      36A      0.701179    37A      0.830801    38A      0.834224  
      39A      0.838118    40A      0.838119    41A      0.914064  
      42A      0.914064    43A      0.936561    44A      1.030328  
      45A      1.030329    46A      1.096220    47A      1.096220  
      48A      1.110126    49A      1.163350    50A      1.295607  
      51A      1.295608    52A      1.298834    53A      1.346654  
      54A      1.346654    55A      1.361206    56A      1.416435  
      57A      1.421703    58A      1.421703    59A      1.468329  
      60A      1.468329    61A      1.482714    62A      1.482714  
      63A      1.500247    64A      1.565879    65A      1.565879  
      66A      1.604500    67A      1.605721    68A      1.694426  
      69A      1.856058    70A      1.856058    71A      2.012691  
      72A      2.012692    73A      2.033304    74A      2.185256  
      75A      2.234772    76A      2.234772    77A      2.304037  
      78A      2.322990    79A      2.322993    80A      2.351768  
      81A      2.456304    82A      2.456305    83A      2.530657  
      84A      2.530657    85A      2.565112    86A      2.584063  
      87A      2.584064    88A      2.660001    89A      2.660001  
      90A      2.693641    91A      2.729620    92A      2.729620  
      93A      2.827478    94A      2.872871    95A      2.924919  
      96A      2.924919    97A      2.970179    98A      3.102413  
      99A      3.102414   100A      3.129608   101A      3.150951  
     102A      3.150956   103A      3.200890   104A      3.254351  
     105A      3.291721   106A      3.291722   107A      3.384669  
     108A      3.557652   109A      3.636643   110A      3.636643  
     111A      3.656048   112A      3.656049   113A      3.808599  
     114A      3.808601   115A      3.833183   116A      3.935144  
     117A      3.937597   118A      3.937599   119A      3.980606  
     120A      3.981519   121A      4.010147   122A      4.010147  
     123A      4.117206   124A      4.138156   125A      4.138157  
     126A      4.231719   127A      4.325689   128A      4.325691  
     129A      4.340484   130A      4.340488   131A      4.365475  
     132A      4.365858   133A      4.437614   134A      4.437615  
     135A      4.500328   136A      4.569519   137A      4.569521  
     138A      4.627798   139A      4.681324   140A      4.681325  
     141A      4.954069   142A      5.090573   143A      5.090574  
     144A      5.300652   145A      5.435794   146A      5.435802  
     147A      5.479085   148A      6.137143   149A      6.145428  
     150A      6.159284   151A      6.159287   152A      6.236342  
     153A      6.236347   154A      6.288416   155A      6.369119  
     156A      6.369127   157A      6.448278   158A      6.684222  
     159A      6.684223   160A      6.751336   161A      6.939039  
     162A      6.969408   163A      6.969410   164A      7.093875  
     165A      7.093878   166A      7.189671   167A      7.230198  
     168A      7.351516   169A      7.351527   170A      7.551889  
     171A      7.551890   172A      7.608992   173A      7.608992  
     174A      7.609917   175A      7.655456   176A      7.655459  
     177A      7.739444   178A      7.909310   179A      7.956295  
     180A      7.956295   181A      8.024576   182A      8.097936  
     183A      8.097937   184A      8.235857   185A      8.287273  
     186A      8.287279   187A      8.298283   188A      8.362010  
     189A      8.362010   190A      8.448982   191A      8.448985  
     192A      8.466121   193A      8.548431   194A      8.596601  
     195A      8.601997   196A      8.601998   197A      8.620823  
     198A      8.830878   199A      8.830888   200A      8.932036  
     201A      8.932037   202A      9.011932   203A      9.067344  
     204A      9.100772   205A      9.100774   206A      9.202901  
     207A      9.202903   208A      9.258124   209A      9.483130  
     210A      9.513513   211A      9.513522   212A      9.976530  
     213A      9.989698   214A      9.989702   215A     10.089752  
     216A     10.089756   217A     10.183528   218A     10.257466  
     219A     10.506338   220A     10.506341   221A     10.621148  
     222A     11.159042   223A     11.335629   224A     11.335629  
     225A     11.475009   226A     11.475009   227A     11.587485  
     228A     11.671328   229A     11.671328   230A     12.085972  
     231A     12.095012   232A     12.095018   233A     12.236105  
     234A     12.299970   235A     12.299983   236A     12.425028  
     237A     14.836257   238A     14.836257   239A     15.694951  
     240A     30.086717   241A     39.448834   242A     43.341553  
     243A     43.341553   244A     43.500560   245A    100.484095  
     246A    200.584410   247A    530.854799  

    Final Occupation by Irrep:
              A 
    DOCC [    14 ]
    NA   [    14 ]
    NB   [    14 ]

  @DF-RHF Final Energy:  -516.34153778371649

   => Energetics <=

    Nuclear Repulsion Energy =             50.5446109085953879
    One-Electron Energy =                -813.1098155307307707
    Two-Electron Energy =                 246.2236668384188931
    Total Energy =                       -516.3415377837164897

Computation Completed


Properties will be evaluated at   0.000000,   0.000000,   0.000000 [a0]

Properties computed using the SCF density matrix


 Multipole Moments:

 ------------------------------------------------------------------------------------
     Multipole            Electronic (a.u.)      Nuclear  (a.u.)        Total (a.u.)
 ------------------------------------------------------------------------------------

 L = 1.  Multiply by 2.5417464519 to convert [e a0] to [Debye]
 Dipole X            :         -0.0000057            0.0000088            0.0000032
 Dipole Y            :          5.8586237           -7.7986488           -1.9400251
 Dipole Z            :         -0.0000000            0.0000000           -0.0000000
 Magnitude           :                                                    1.9400251

 ------------------------------------------------------------------------------------

*** tstop() called on cmpsrv002 at Thu Sep 19 14:18:56 2024
Module time:
	user time   =      11.69 seconds =       0.19 minutes
	system time =       1.53 seconds =       0.03 minutes
	total time  =        167 seconds =       2.78 minutes
Total time:
	user time   =      11.69 seconds =       0.19 minutes
	system time =       1.53 seconds =       0.03 minutes
	total time  =        167 seconds =       2.78 minutes
   => Libint2 <=

    Primary   basis highest AM E, G, H:  6, 6, 3
    Auxiliary basis highest AM E, G, H:  7, 7, 4
    Onebody   basis highest AM E, G, H:  -, -, -
    Solid Harmonics ordering:            Gaussian

*** tstart() called on cmpsrv002
*** at Thu Sep 19 14:18:56 2024

   => Loading Basis Set <=

    Name: THIS_BASIS
    Role: ORBITAL
    Keyword: BASIS
    atoms 1, 4-6 entry H          line    15 file /home/vance/anaconda3/envs/p4env/share/psi4/basis/def2-qzvp.gbs 
    atoms 2      entry CL         line   809 file /home/vance/anaconda3/envs/p4env/share/psi4/basis/def2-qzvp.gbs 
    atoms 3      entry N          line   242 file /home/vance/anaconda3/envs/p4env/share/psi4/basis/def2-qzvp.gbs 


         ---------------------------------------------------------
                       SAPT(DFT): delta HF Monomer A               
         ---------------------------------------------------------
                                   SCF
               by Justin Turney, Rob Parrish, Andy Simmonett
                          and Daniel G. A. Smith
                              RHF Reference
                        4 Threads,   7629 MiB Core
         ---------------------------------------------------------

  ==> Geometry <==

    Molecular point group: c1
    Full point group: Cs

    Geometry (in Angstrom), charge = 0, multiplicity = 1:

       Center              X                  Y                   Z               Mass       
    ------------   -----------------  -----------------  -----------------  -----------------
         H           -0.000000190144    -0.340349544265     0.000000000000     1.007825032230
         CL          -0.000000190144     1.003000455735     0.000000000000    34.968852682000
      Gh(N)          -0.000000190144    -1.976049544265     0.000000000000    14.003074004430
      Gh(H)          -0.473180190144    -2.335059544265     0.819580000000     1.007825032230
      Gh(H)          -0.473180190144    -2.335059544265    -0.819580000000     1.007825032230
      Gh(H)           0.946369809856    -2.335059544265     0.000000000000     1.007825032230

  Running in c1 symmetry.

  Rotational constants: A =      6.22544  B =      0.15636  C =      0.15636 [cm^-1]
  Rotational constants: A = 186633.95025  B =   4687.50822  C =   4687.50787 [MHz]
  Nuclear repulsion =    6.696700473733576

  Charge       = 0
  Multiplicity = 1
  Electrons    = 18
  Nalpha       = 9
  Nbeta        = 9

  ==> Algorithm <==

  SCF Algorithm Type is DF.
  DIIS enabled.
  MOM disabled.
  Fractional occupation disabled.
  Guess Type is SAD.
  Energy threshold   = 1.00e-08
  Density threshold  = 1.00e-08
  Integral threshold = 1.00e-12

  ==> Primary Basis <==

  Basis Set: THIS_BASIS
    Blend: DEF2-QZVP
    Number of shells: 79
    Number of basis functions: 247
    Number of Cartesian functions: 298
    Spherical Harmonics?: true
    Max angular momentum: 4

   => Loading Basis Set <=

    Name: (THIS_BASIS AUX)
    Role: JKFIT
    Keyword: DF_BASIS_SCF
    atoms 1, 4-6 entry H          line    18 file /home/vance/anaconda3/envs/p4env/share/psi4/basis/def2-universal-jkfit.gbs 
    atoms 2      entry CL         line   986 file /home/vance/anaconda3/envs/p4env/share/psi4/basis/def2-universal-jkfit.gbs 
    atoms 3      entry N          line   258 file /home/vance/anaconda3/envs/p4env/share/psi4/basis/def2-universal-jkfit.gbs 

  ==> Integral Setup <==

  ==> DiskDFJK: Density-Fitted J/K Matrices <==

    J tasked:                  Yes
    K tasked:                  Yes
    wK tasked:                  No
    OpenMP threads:              4
    Integrals threads:           4
    Memory [MiB]:             5722
    Algorithm:                Core
    Integral Cache:           SAVE
    Schwarz Cutoff:          1E-12
    Fitting Condition:       1E-10

   => Auxiliary Basis Set <=

  Basis Set: (THIS_BASIS AUX)
    Blend: DEF2-UNIVERSAL-JKFIT
    Number of shells: 87
    Number of basis functions: 277
    Number of Cartesian functions: 328
    Spherical Harmonics?: true
    Max angular momentum: 4

  Minimum eigenvalue in the overlap matrix is 1.0813700412E-04.
  Reciprocal condition number of the overlap matrix is 1.2744364375E-05.
    Using symmetric orthogonalization.

  ==> Pre-Iterations <==

  SCF Guess: Superposition of Atomic Densities via on-the-fly atomic UHF (no occupation information).

   -------------------------
    Irrep   Nso     Nmo    
   -------------------------
     A        247     247 
   -------------------------
    Total     247     247
   -------------------------

  ==> Iterations <==

                           Total Energy        Delta E     RMS |[F,P]|

   @DF-RHF iter SAD:  -459.87337577069360   -4.59873e+02   0.00000e+00 
   @DF-RHF iter   1:  -460.08528327687281   -2.11908e-01   8.93036e-04 ADIIS/DIIS
   @DF-RHF iter   2:  -460.10553737578135   -2.02541e-02   3.75548e-04 ADIIS/DIIS
   @DF-RHF iter   3:  -460.10841747045043   -2.88009e-03   6.55857e-05 DIIS
   @DF-RHF iter   4:  -460.10877069824761   -3.53228e-04   2.09132e-05 DIIS
   @DF-RHF iter   5:  -460.10881614825956   -4.54500e-05   3.63090e-06 DIIS
   @DF-RHF iter   6:  -460.10881730974398   -1.16148e-06   7.91914e-07 DIIS
   @DF-RHF iter   7:  -460.10881733345235   -2.37084e-08   1.71005e-07 DIIS
   @DF-RHF iter   8:  -460.10881733543641   -1.98406e-09   3.37081e-08 DIIS
   @DF-RHF iter   9:  -460.10881733551679   -8.03766e-11   4.90827e-09 DIIS
  Energy and wave function converged.


  ==> Post-Iterations <==

    Orbital Energies [Eh]
    ---------------------

    Doubly Occupied:                                                      

       1A   -104.852017     2A    -10.575761     3A     -8.042870  
       4A     -8.041239     5A     -8.041239     6A     -1.104836  
       7A     -0.611035     8A     -0.475167     9A     -0.475167  

    Virtual:                                                              

      10A      0.057035    11A      0.136290    12A      0.136290  
      13A      0.142871    14A      0.216055    15A      0.255811  
      16A      0.281705    17A      0.281705    18A      0.313078  
      19A      0.313078    20A      0.326207    21A      0.422044  
      22A      0.469282    23A      0.469282    24A      0.495105  
      25A      0.495105    26A      0.535797    27A      0.535798  
      28A      0.612884    29A      0.665801    30A      0.665802  
      31A      0.682916    32A      0.785435    33A      0.867209  
      34A      0.883309    35A      0.883309    36A      0.938645  
      37A      0.964793    38A      0.965554    39A      0.965555  
      40A      1.088556    41A      1.088557    42A      1.107044  
      43A      1.168003    44A      1.168004    45A      1.209482  
      46A      1.312971    47A      1.312971    48A      1.327354  
      49A      1.349133    50A      1.349134    51A      1.421011  
      52A      1.421011    53A      1.422279    54A      1.435066  
      55A      1.435066    56A      1.458124    57A      1.513531  
      58A      1.513531    59A      1.532885    60A      1.532886  
      61A      1.561696    62A      1.564230    63A      1.596707  
      64A      1.913920    65A      1.965154    66A      1.965154  
      67A      2.060335    68A      2.191480    69A      2.191484  
      70A      2.243797    71A      2.319567    72A      2.319567  
      73A      2.412472    74A      2.412474    75A      2.429264  
      76A      2.464961    77A      2.538572    78A      2.538572  
      79A      2.610775    80A      2.610776    81A      2.674434  
      82A      2.698211    83A      2.698212    84A      2.810189  
      85A      2.838245    86A      2.838246    87A      2.866123  
      88A      2.866124    89A      2.878591    90A      2.991114  
      91A      2.991114    92A      3.028750    93A      3.092952  
      94A      3.092952    95A      3.146706    96A      3.205546  
      97A      3.299223    98A      3.413045    99A      3.428568  
     100A      3.442108   101A      3.442109   102A      3.554809  
     103A      3.554810   104A      3.591810   105A      3.591810  
     106A      3.649935   107A      3.680956   108A      3.680956  
     109A      3.768668   110A      3.768671   111A      3.928199  
     112A      3.928910   113A      3.961875   114A      3.961875  
     115A      3.964189   116A      4.038766   117A      4.053427  
     118A      4.053427   119A      4.114723   120A      4.114724  
     121A      4.275971   122A      4.275971   123A      4.313624  
     124A      4.313846   125A      4.331440   126A      4.355111  
     127A      4.359128   128A      4.359128   129A      4.485522  
     130A      4.510484   131A      4.510491   132A      4.559798  
     133A      4.635294   134A      4.635296   135A      5.020583  
     136A      5.065405   137A      5.065412   138A      5.104510  
     139A      5.104512   140A      5.404602   141A      5.472555  
     142A      5.996898   143A      5.996903   144A      6.093157  
     145A      6.101694   146A      6.422576   147A      6.422580  
     148A      6.480503   149A      6.480506   150A      6.552455  
     151A      6.719121   152A      6.719124   153A      6.742370  
     154A      6.796423   155A      6.796429   156A      7.207317  
     157A      7.207324   158A      7.300340   159A      7.300345  
     160A      7.319960   161A      7.405505   162A      7.558641  
     163A      7.558641   164A      7.639906   165A      7.643596  
     166A      7.830919   167A      7.830919   168A      7.905418  
     169A      7.966306   170A      8.134132   171A      8.134136  
     172A      8.155208   173A      8.246288   174A      8.246290  
     175A      8.419938   176A      8.419938   177A      8.442048  
     178A      8.605885   179A      8.605890   180A      8.629352  
     181A      8.629353   182A      8.687372   183A      8.769325  
     184A      8.769329   185A      8.770255   186A      8.907386  
     187A      8.907388   188A      8.920382   189A      8.985736  
     190A      9.015785   191A      9.015792   192A      9.104196  
     193A      9.276538   194A      9.325894   195A      9.325901  
     196A      9.394374   197A      9.405423   198A      9.405423  
     199A      9.475953   200A      9.515808   201A      9.773880  
     202A      9.773892   203A      9.811937   204A      9.982051  
     205A     10.077470   206A     10.077482   207A     10.267858  
     208A     10.312354   209A     10.312355   210A     10.750584  
     211A     10.750585   212A     10.881493   213A     11.007514  
     214A     11.007526   215A     11.180667   216A     11.276695  
     217A     11.276695   218A     11.411111   219A     11.411111  
     220A     11.841642   221A     11.841653   222A     11.850979  
     223A     12.351681   224A     12.351908   225A     12.351921  
     226A     12.779527   227A     13.674130   228A     13.871376  
     229A     13.871381   230A     14.198901   231A     14.288082  
     232A     14.288088   233A     14.575440   234A     14.575447  
     235A     14.604322   236A     16.115493   237A     18.252004  
     238A     18.252016   239A     25.560477   240A     30.023967  
     241A     43.275350   242A     43.275350   243A     43.433304  
     244A     70.333823   245A    100.417576   246A    318.727317  
     247A    530.786872  

    Final Occupation by Irrep:
              A 
    DOCC [     9 ]
    NA   [     9 ]
    NB   [     9 ]

  @DF-RHF Final Energy:  -460.10881733551679

   => Energetics <=

    Nuclear Repulsion Energy =              6.6967004737335758
    One-Electron Energy =                -649.1723758028140310
    Two-Electron Energy =                 182.3668579935636842
    Total Energy =                       -460.1088173355167328

Computation Completed


Properties will be evaluated at   0.000000,   0.000000,   0.000000 [a0]

Properties computed using the SCF density matrix


 Multipole Moments:

 ------------------------------------------------------------------------------------
     Multipole            Electronic (a.u.)      Nuclear  (a.u.)        Total (a.u.)
 ------------------------------------------------------------------------------------

 L = 1.  Multiply by 2.5417464519 to convert [e a0] to [Debye]
 Dipole X            :          0.0000065           -0.0000065           -0.0000000
 Dipole Y            :        -32.0804901           31.5785674           -0.5019227
 Dipole Z            :         -0.0000000            0.0000000           -0.0000000
 Magnitude           :                                                    0.5019227

 ------------------------------------------------------------------------------------

*** tstop() called on cmpsrv002 at Thu Sep 19 14:20:21 2024
Module time:
	user time   =      10.37 seconds =       0.17 minutes
	system time =       0.76 seconds =       0.01 minutes
	total time  =         85 seconds =       1.42 minutes
Total time:
	user time   =      22.06 seconds =       0.37 minutes
	system time =       2.29 seconds =       0.04 minutes
	total time  =        252 seconds =       4.20 minutes
   => Libint2 <=

    Primary   basis highest AM E, G, H:  6, 6, 3
    Auxiliary basis highest AM E, G, H:  7, 7, 4
    Onebody   basis highest AM E, G, H:  -, -, -
    Solid Harmonics ordering:            Gaussian

*** tstart() called on cmpsrv002
*** at Thu Sep 19 14:20:21 2024

   => Loading Basis Set <=

    Name: THIS_BASIS
    Role: ORBITAL
    Keyword: BASIS
    atoms 1, 4-6 entry H          line    15 file /home/vance/anaconda3/envs/p4env/share/psi4/basis/def2-qzvp.gbs 
    atoms 2      entry CL         line   809 file /home/vance/anaconda3/envs/p4env/share/psi4/basis/def2-qzvp.gbs 
    atoms 3      entry N          line   242 file /home/vance/anaconda3/envs/p4env/share/psi4/basis/def2-qzvp.gbs 


         ---------------------------------------------------------
                       SAPT(DFT): delta HF Monomer B               
         ---------------------------------------------------------
                                   SCF
               by Justin Turney, Rob Parrish, Andy Simmonett
                          and Daniel G. A. Smith
                              RHF Reference
                        4 Threads,   7629 MiB Core
         ---------------------------------------------------------

  ==> Geometry <==

    Molecular point group: c1
    Full point group: Cs

    Geometry (in Angstrom), charge = 0, multiplicity = 1:

       Center              X                  Y                   Z               Mass       
    ------------   -----------------  -----------------  -----------------  -----------------
      Gh(H)          -0.000000190144    -0.340349544265     0.000000000000     1.007825032230
      Gh(CL)         -0.000000190144     1.003000455735     0.000000000000    34.968852682000
         N           -0.000000190144    -1.976049544265     0.000000000000    14.003074004430
         H           -0.473180190144    -2.335059544265     0.819580000000     1.007825032230
         H           -0.473180190144    -2.335059544265    -0.819580000000     1.007825032230
         H            0.946369809856    -2.335059544265     0.000000000000     1.007825032230

  Running in c1 symmetry.

  Rotational constants: A =      6.22544  B =      0.15636  C =      0.15636 [cm^-1]
  Rotational constants: A = 186633.95025  B =   4687.50822  C =   4687.50787 [MHz]
  Nuclear repulsion =   11.947542838505763

  Charge       = 0
  Multiplicity = 1
  Electrons    = 10
  Nalpha       = 5
  Nbeta        = 5

  ==> Algorithm <==

  SCF Algorithm Type is DF.
  DIIS enabled.
  MOM disabled.
  Fractional occupation disabled.
  Guess Type is SAD.
  Energy threshold   = 1.00e-08
  Density threshold  = 1.00e-08
  Integral threshold = 1.00e-12

  ==> Primary Basis <==

  Basis Set: THIS_BASIS
    Blend: DEF2-QZVP
    Number of shells: 79
    Number of basis functions: 247
    Number of Cartesian functions: 298
    Spherical Harmonics?: true
    Max angular momentum: 4

   => Loading Basis Set <=

    Name: (THIS_BASIS AUX)
    Role: JKFIT
    Keyword: DF_BASIS_SCF
    atoms 1, 4-6 entry H          line    18 file /home/vance/anaconda3/envs/p4env/share/psi4/basis/def2-universal-jkfit.gbs 
    atoms 2      entry CL         line   986 file /home/vance/anaconda3/envs/p4env/share/psi4/basis/def2-universal-jkfit.gbs 
    atoms 3      entry N          line   258 file /home/vance/anaconda3/envs/p4env/share/psi4/basis/def2-universal-jkfit.gbs 

  ==> Integral Setup <==

  ==> DiskDFJK: Density-Fitted J/K Matrices <==

    J tasked:                  Yes
    K tasked:                  Yes
    wK tasked:                  No
    OpenMP threads:              4
    Integrals threads:           4
    Memory [MiB]:             5722
    Algorithm:                Core
    Integral Cache:           SAVE
    Schwarz Cutoff:          1E-12
    Fitting Condition:       1E-10

   => Auxiliary Basis Set <=

  Basis Set: (THIS_BASIS AUX)
    Blend: DEF2-UNIVERSAL-JKFIT
    Number of shells: 87
    Number of basis functions: 277
    Number of Cartesian functions: 328
    Spherical Harmonics?: true
    Max angular momentum: 4

  Minimum eigenvalue in the overlap matrix is 1.0813700412E-04.
  Reciprocal condition number of the overlap matrix is 1.2744364375E-05.
    Using symmetric orthogonalization.

  ==> Pre-Iterations <==

  SCF Guess: Superposition of Atomic Densities via on-the-fly atomic UHF (no occupation information).

   -------------------------
    Irrep   Nso     Nmo    
   -------------------------
     A        247     247 
   -------------------------
    Total     247     247
   -------------------------

  ==> Iterations <==

                           Total Energy        Delta E     RMS |[F,P]|

   @DF-RHF iter SAD:   -55.65240578888046   -5.56524e+01   0.00000e+00 
   @DF-RHF iter   1:   -56.12997553977419   -4.77570e-01   1.85963e-03 ADIIS/DIIS
   @DF-RHF iter   2:   -56.19694746947654   -6.69719e-02   1.07303e-03 ADIIS/DIIS
   @DF-RHF iter   3:   -56.22385986158918   -2.69124e-02   9.95478e-05 DIIS
   @DF-RHF iter   4:   -56.22448905053581   -6.29189e-04   1.85183e-05 DIIS
   @DF-RHF iter   5:   -56.22450963284068   -2.05823e-05   3.45536e-06 DIIS
   @DF-RHF iter   6:   -56.22451084293635   -1.21010e-06   8.64146e-07 DIIS
   @DF-RHF iter   7:   -56.22451092305043   -8.01141e-08   1.90446e-07 DIIS
   @DF-RHF iter   8:   -56.22451092718782   -4.13733e-09   3.00994e-08 DIIS
   @DF-RHF iter   9:   -56.22451092729079   -1.02993e-10   8.37091e-09 DIIS
  Energy and wave function converged.


  ==> Post-Iterations <==

    Orbital Energies [Eh]
    ---------------------

    Doubly Occupied:                                                      

       1A    -15.538788     2A     -1.139375     3A     -0.630634  
       4A     -0.630632     5A     -0.425259  

    Virtual:                                                              

       6A      0.099586     7A      0.125689     8A      0.156455  
       9A      0.156455    10A      0.217716    11A      0.217716  
      12A      0.254360    13A      0.327067    14A      0.327067  
      15A      0.332114    16A      0.400563    17A      0.509357  
      18A      0.521646    19A      0.521647    20A      0.544602  
      21A      0.544603    22A      0.596142    23A      0.707576  
      24A      0.751566    25A      0.751566    26A      0.766623  
      27A      0.766623    28A      0.802326    29A      0.802327  
      30A      0.868909    31A      0.872996    32A      0.906980  
      33A      0.906981    34A      0.944659    35A      0.993961  
      36A      1.013113    37A      1.013113    38A      1.077450  
      39A      1.077451    40A      1.095111    41A      1.194109  
      42A      1.194109    43A      1.289075    44A      1.313736  
      45A      1.355934    46A      1.355936    47A      1.407577  
      48A      1.506802    49A      1.506803    50A      1.540246  
      51A      1.735198    52A      1.794892    53A      1.794892  
      54A      1.816259    55A      1.816878    56A      1.913903  
      57A      1.913904    58A      1.964052    59A      2.084504  
      60A      2.084504    61A      2.193573    62A      2.193574  
      63A      2.290281    64A      2.328266    65A      2.328266  
      66A      2.344412    67A      2.361570    68A      2.396443  
      69A      2.409890    70A      2.409892    71A      2.431283  
      72A      2.431284    73A      2.447165    74A      2.447165  
      75A      2.537730    76A      2.537731    77A      2.588916  
      78A      2.606883    79A      2.606885    80A      2.676682  
      81A      2.676684    82A      2.702077    83A      2.832574  
      84A      2.833010    85A      2.833010    86A      2.880774  
      87A      2.897129    88A      2.897130    89A      2.964045  
      90A      3.149141    91A      3.149141    92A      3.158455  
      93A      3.181608    94A      3.181610    95A      3.238801  
      96A      3.238805    97A      3.241265    98A      3.309236  
      99A      3.491018   100A      3.491018   101A      3.551025  
     102A      3.642868   103A      3.812831   104A      3.967205  
     105A      3.967211   106A      4.024261   107A      4.024262  
     108A      4.173959   109A      4.191553   110A      4.387479  
     111A      4.387487   112A      4.418101   113A      4.553464  
     114A      4.553887   115A      4.572967   116A      4.572967  
     117A      4.617000   118A      4.662013   119A      4.662014  
     120A      4.780982   121A      4.780982   122A      5.200142  
     123A      5.382736   124A      5.382737   125A      5.454581  
     126A      5.454588   127A      5.598135   128A      5.598136  
     129A      5.687930   130A      5.817509   131A      5.839681  
     132A      5.840165   133A      5.850549   134A      5.850549  
     135A      5.933121   136A      5.933122   137A      6.217721  
     138A      6.217724   139A      6.279664   140A      6.279668  
     141A      6.293413   142A      6.333837   143A      6.340727  
     144A      6.417562   145A      6.417570   146A      6.428021  
     147A      6.428021   148A      6.448380   149A      6.459927  
     150A      6.687879   151A      6.687881   152A      6.798644  
     153A      6.803011   154A      6.876789   155A      6.919534  
     156A      6.919537   157A      7.056304   158A      7.156211  
     159A      7.156213   160A      7.277590   161A      7.296042  
     162A      7.296045   163A      7.441000   164A      7.441010  
     165A      7.635205   166A      7.635206   167A      7.699796  
     168A      7.701272   169A      7.701276   170A      7.823490  
     171A      7.993707   172A      7.993708   173A      8.007723  
     174A      8.089157   175A      8.151607   176A      8.151607  
     177A      8.208062   178A      8.208063   179A      8.285353  
     180A      8.392441   181A      8.408092   182A      8.408096  
     183A      8.499590   184A      8.515162   185A      8.590204  
     186A      8.590206   187A      8.671551   188A      8.697042  
     189A      8.794420   190A      8.794422   191A      8.898672  
     192A      8.898679   193A      8.969987   194A      9.000242  
     195A      9.000243   196A      9.119131   197A      9.119136  
     198A      9.140465   199A      9.474985   200A      9.474992  
     201A      9.562512   202A      9.613686   203A      9.613690  
     204A      9.771123   205A      9.771124   206A     10.031276  
     207A     10.095044   208A     10.095050   209A     10.176580  
     210A     10.176583   211A     10.310981   212A     10.364255  
     213A     10.561350   214A     10.561353   215A     10.623731  
     216A     10.988060   217A     11.642758   218A     11.722282  
     219A     11.722283   220A     12.096586   221A     12.146921  
     222A     12.146928   223A     12.354344   224A     12.354358  
     225A     12.474684   226A     12.511023   227A     14.886646  
     228A     14.886646   229A     15.579690   230A     15.758307  
     231A     21.731882   232A     21.731883   233A     21.748087  
     234A     21.748087   235A     21.882083   236A     21.882083  
     237A     21.991128   238A     22.608864   239A     35.887009  
     240A     39.501997   241A     85.725866   242A    118.204693  
     243A    118.204693   244A    118.245680   245A    200.635839  
     246A    234.222994   247A   1052.214212  

    Final Occupation by Irrep:
              A 
    DOCC [     5 ]
    NA   [     5 ]
    NB   [     5 ]

  @DF-RHF Final Energy:   -56.22451092729079

   => Energetics <=

    Nuclear Repulsion Energy =             11.9475428385057629
    One-Electron Energy =                 -99.6147306121299323
    Two-Electron Energy =                  31.4426768463333701
    Total Energy =                        -56.2245109272907939

Computation Completed


Properties will be evaluated at   0.000000,   0.000000,   0.000000 [a0]

Properties computed using the SCF density matrix


 Multipole Moments:

 ------------------------------------------------------------------------------------
     Multipole            Electronic (a.u.)      Nuclear  (a.u.)        Total (a.u.)
 ------------------------------------------------------------------------------------

 L = 1.  Multiply by 2.5417464519 to convert [e a0] to [Debye]
 Dipole X            :         -0.0000126            0.0000153            0.0000027
 Dipole Y            :         38.7626069          -39.3772162           -0.6146093
 Dipole Z            :         -0.0000000            0.0000000           -0.0000000
 Magnitude           :                                                    0.6146093

 ------------------------------------------------------------------------------------

*** tstop() called on cmpsrv002 at Thu Sep 19 14:21:35 2024
Module time:
	user time   =       9.84 seconds =       0.16 minutes
	system time =       0.71 seconds =       0.01 minutes
	total time  =         74 seconds =       1.23 minutes
Total time:
	user time   =      31.90 seconds =       0.53 minutes
	system time =       3.00 seconds =       0.05 minutes
	total time  =        326 seconds =       5.43 minutes

         ---------------------------------------------------------
                        SAPT(DFT): delta HF Segment                

                   by Daniel G. A. Smith and Rob Parrish           
         ---------------------------------------------------------


  ==> Preparing SAPT Data Cache <== 

  ==> DiskDFJK: Density-Fitted J/K Matrices <==

    J tasked:                  Yes
    K tasked:                  Yes
    wK tasked:                  No
    OpenMP threads:              4
    Integrals threads:           4
    Memory [MiB]:             5722
    Algorithm:                Core
    Integral Cache:           SAVE
    Schwarz Cutoff:          1E-12
    Fitting Condition:       1E-10

   => Auxiliary Basis Set <=

  Basis Set: (THIS_BASIS AUX)
    Blend: DEF2-UNIVERSAL-JKFIT
    Number of shells: 87
    Number of basis functions: 277
    Number of Cartesian functions: 328
    Spherical Harmonics?: true
    Max angular momentum: 4


  ==> E10 Electostatics <== 

    Elst10,r                        -40.50894416 [mEh]

  ==> E10 Exchange <== 

    Exch10(S^2)                      56.53300088 [mEh]
    Exch10                           58.96702411 [mEh]

  ==> E20 Induction <== 

   => Uncoupled Induction <= 

    Ind20,u (A<-B)                   -8.10791906 [mEh]
    Ind20,u (A->B)                  -17.20131699 [mEh]
    Ind20,u                         -25.30923605 [mEh]
    Exch-Ind20,u (A<-B)               5.47775629 [mEh]
    Exch-Ind20,u (A->B)               8.87824977 [mEh]
    Exch-Ind20,u                     14.35600606 [mEh]
    Exch-Ind20,u (A<-B) (S^inf)       6.00975963 [mEh]
    Exch-Ind20,u (A->B) (S^inf)       9.89900433 [mEh]
    Exch-Ind20,u (S^inf)             15.90876396 [mEh]

   => Coupled Induction <= 

   ---------------------------------------------------
              SAPT Coupled Induction Solver           
   ---------------------------------------------------
    Maxiter             =          20
    Convergence         =   1.000E-06
   ---------------------------------------------------
     Iter       (A<-B)           (B->A)      Time [s]
   ---------------------------------------------------
    Guess    1.230820e-01     1.620620e-01          0
        1    4.403233e-02     4.963637e-02          0
        2    4.563487e-03     1.420212e-02          0
        3    1.284880e-03     3.849737e-03          0
        4    3.247094e-04     7.405360e-04          0
        5    6.532605e-05     1.249817e-04          1
        6    1.514616e-05     1.804392e-05          1
        7    3.310447e-06     2.960845e-06          1
        8    4.602685e-07*    6.201632e-07*         1
   ---------------------------------------------------

    Ind20,r (A<-B)                   -9.27800794 [mEh]
    Ind20,r (A->B)                  -21.93866960 [mEh]
    Ind20,r                         -31.21667754 [mEh]
    Exch-Ind20,r (A<-B)               6.52098058 [mEh]
    Exch-Ind20,r (A->B)              12.17812302 [mEh]
    Exch-Ind20,r                     18.69910360 [mEh]
    Exch-Ind20,r (A<-B) (S^inf)       7.16956955 [mEh]
    Exch-Ind20,r (A->B) (S^inf)      13.62390392 [mEh]
    Exch-Ind20,r (S^inf)             20.79347347 [mEh]

   Partial SAPT(HF) Results, to compute Delta HF (dHF)
  ---------------------------------------------------------------------------------------------------------
    Electrostatics                  -40.50894416 [mEh]    -25.41974623 [kcal/mol]   -106.35621823 [kJ/mol]
      Elst10,r                      -40.50894416 [mEh]    -25.41974623 [kcal/mol]   -106.35621823 [kJ/mol]

    Exchange                         58.96702411 [mEh]     37.00236627 [kcal/mol]    154.81790048 [kJ/mol]
      Exch10                         58.96702411 [mEh]     37.00236627 [kcal/mol]    154.81790048 [kJ/mol]
      Exch10(S^2)                    56.53300088 [mEh]     35.47499363 [kcal/mol]    148.42737336 [kJ/mol]

    Induction (no dHF)              -12.51757394 [mEh]     -7.85489624 [kcal/mol]    -32.86488586 [kJ/mol]
      Ind20,r                       -31.21667754 [mEh]    -19.58876090 [kcal/mol]    -81.95937560 [kJ/mol]
      Exch-Ind20,r                   18.69910360 [mEh]     11.73386466 [kcal/mol]     49.09448974 [kJ/mol]
      Induction (A<-B) (no dHF)      -2.75702736 [mEh]     -1.73006079 [kcal/mol]     -7.23857434 [kJ/mol]
      Induction (A->B) (no dHF)      -9.76054658 [mEh]     -6.12483545 [kcal/mol]    -25.62631152 [kJ/mol]

    Subtotal SAPT(HF)                 5.94050601 [mEh]      3.72772380 [kcal/mol]     15.59679639 [kJ/mol]
    Total HF                         -8.20952091 [mEh]     -5.15155215 [kcal/mol]    -21.55409418 [kJ/mol]
    Delta HF                        -14.15002692 [mEh]     -8.87927595 [kcal/mol]    -37.15089056 [kJ/mol]
  ---------------------------------------------------------------------------------------------------------
   Partial SAPT(HF) Results, alternate SAPT0-like display
  ---------------------------------------------------------------------------------------------------------
    Induction                       -26.66760087 [mEh]    -16.73417219 [kcal/mol]    -70.01577643 [kJ/mol]
      Ind20,r                       -31.21667754 [mEh]    -19.58876090 [kcal/mol]    -81.95937560 [kJ/mol]
      Exch-Ind20,r                   18.69910360 [mEh]     11.73386466 [kcal/mol]     49.09448974 [kJ/mol]
      delta HF,r (2)                -14.15002692 [mEh]     -8.87927595 [kcal/mol]    -37.15089056 [kJ/mol]
      Induction (A<-B)               -5.87360663 [mEh]     -3.68574380 [kcal/mol]    -15.42115208 [kJ/mol]
      Induction (A->B)              -20.79399424 [mEh]    -13.04842838 [kcal/mol]    -54.59462435 [kJ/mol]
  ---------------------------------------------------------------------------------------------------------
   => Libint2 <=

    Primary   basis highest AM E, G, H:  6, 6, 3
    Auxiliary basis highest AM E, G, H:  7, 7, 4
    Onebody   basis highest AM E, G, H:  -, -, -
    Solid Harmonics ordering:            Gaussian

*** tstart() called on cmpsrv002
*** at Thu Sep 19 14:21:38 2024

   => Loading Basis Set <=

    Name: THIS_BASIS
    Role: ORBITAL
    Keyword: BASIS
    atoms 1, 4-6 entry H          line    15 file /home/vance/anaconda3/envs/p4env/share/psi4/basis/def2-qzvp.gbs 
    atoms 2      entry CL         line   809 file /home/vance/anaconda3/envs/p4env/share/psi4/basis/def2-qzvp.gbs 
    atoms 3      entry N          line   242 file /home/vance/anaconda3/envs/p4env/share/psi4/basis/def2-qzvp.gbs 


         ---------------------------------------------------------
                          SAPT(DFT): DFT Monomer A                 
         ---------------------------------------------------------
                                   SCF
               by Justin Turney, Rob Parrish, Andy Simmonett
                          and Daniel G. A. Smith
                              RKS Reference
                        4 Threads,   7629 MiB Core
         ---------------------------------------------------------

  ==> Geometry <==

    Molecular point group: c1
    Full point group: Cs

    Geometry (in Angstrom), charge = 0, multiplicity = 1:

       Center              X                  Y                   Z               Mass       
    ------------   -----------------  -----------------  -----------------  -----------------
         H           -0.000000190144    -0.340349544265     0.000000000000     1.007825032230
         CL          -0.000000190144     1.003000455735     0.000000000000    34.968852682000
      Gh(N)          -0.000000190144    -1.976049544265     0.000000000000    14.003074004430
      Gh(H)          -0.473180190144    -2.335059544265     0.819580000000     1.007825032230
      Gh(H)          -0.473180190144    -2.335059544265    -0.819580000000     1.007825032230
      Gh(H)           0.946369809856    -2.335059544265     0.000000000000     1.007825032230

  Running in c1 symmetry.

  Rotational constants: A =      6.22544  B =      0.15636  C =      0.15636 [cm^-1]
  Rotational constants: A = 186633.95025  B =   4687.50822  C =   4687.50787 [MHz]
  Nuclear repulsion =    6.696700473733576

  Charge       = 0
  Multiplicity = 1
  Electrons    = 18
  Nalpha       = 9
  Nbeta        = 9

  ==> Algorithm <==

  SCF Algorithm Type is DF.
  DIIS enabled.
  MOM disabled.
  Fractional occupation disabled.
  Guess Type is SAD.
  Energy threshold   = 1.00e-08
  Density threshold  = 1.00e-08
  Integral threshold = 1.00e-12

  ==> Primary Basis <==

  Basis Set: THIS_BASIS
    Blend: DEF2-QZVP
    Number of shells: 79
    Number of basis functions: 247
    Number of Cartesian functions: 298
    Spherical Harmonics?: true
    Max angular momentum: 4

  ==> DFT Potential <==

   => LibXC <=

    Version 6.2.2
    S. Lehtola, C. Steigemann, M. J.T. Oliveira, and M. A.L. Marques.,  SoftwareX 7, 15 (2018) (10.1016/j.softx.2017.11.002)

   => Composite Functional: PBE0 <= 

    PBE0 Hyb-GGA Exchange-Correlation Functional

    C. Adamo and V. Barone.,  J. Chem. Phys. 110, 6158 (1999) (10.1063/1.478522)
    M. Ernzerhof and G. E. Scuseria.,  J. Chem. Phys. 110, 5029 (1999) (10.1063/1.478401)

    Deriv               =              1
    GGA                 =           TRUE
    Meta                =          FALSE

    Exchange Hybrid     =           TRUE
    MP2 Hybrid          =          FALSE

   => Exchange Functionals <=

    0.7500   Perdew, Burke & Ernzerhof

   => Exact (HF) Exchange <=

    0.2500               HF 

   => Correlation Functionals <=

    1.0000   Perdew, Burke & Ernzerhof

   => LibXC Density Thresholds  <==

    XC_HYB_GGA_XC_PBEH:  1.00E-15 

   => Asymptotic Correction <=

    X Functional        =    XC_GGA_X_LB
    C Functional        =   XC_LDA_C_VWN
    Bulk Shift          =       0.116251
    GRAC Alpha          =       0.500000
    GRAC Beta           =      40.000000

   => Molecular Quadrature <=

    Radial Scheme          =       TREUTLER
    Pruning Scheme         =           NONE
    Nuclear Scheme         =       TREUTLER

    Blocking Scheme        =         OCTREE
    BS radius alpha        =              1
    Pruning alpha          =              1
    Radial Points          =             75
    Spherical Points       =            302
    Total Points           =         130366
    Total Blocks           =           1040
    Max Points             =            256
    Max Functions          =            234
    Weights Tolerance      =       1.00E-15

   => Loading Basis Set <=

    Name: (THIS_BASIS AUX)
    Role: JKFIT
    Keyword: DF_BASIS_SCF
    atoms 1, 4-6 entry H          line    18 file /home/vance/anaconda3/envs/p4env/share/psi4/basis/def2-universal-jkfit.gbs 
    atoms 2      entry CL         line   986 file /home/vance/anaconda3/envs/p4env/share/psi4/basis/def2-universal-jkfit.gbs 
    atoms 3      entry N          line   258 file /home/vance/anaconda3/envs/p4env/share/psi4/basis/def2-universal-jkfit.gbs 

  ==> Integral Setup <==

  ==> DiskDFJK: Density-Fitted J/K Matrices <==

    J tasked:                  Yes
    K tasked:                  Yes
    wK tasked:                  No
    OpenMP threads:              4
    Integrals threads:           4
    Memory [MiB]:             4979
    Algorithm:                Core
    Integral Cache:           SAVE
    Schwarz Cutoff:          1E-12
    Fitting Condition:       1E-10

   => Auxiliary Basis Set <=

  Basis Set: (THIS_BASIS AUX)
    Blend: DEF2-UNIVERSAL-JKFIT
    Number of shells: 87
    Number of basis functions: 277
    Number of Cartesian functions: 328
    Spherical Harmonics?: true
    Max angular momentum: 4

  Cached 100.0% of DFT collocation blocks in 0.725 [GiB].

  Minimum eigenvalue in the overlap matrix is 1.0813700412E-04.
  Reciprocal condition number of the overlap matrix is 1.2744364375E-05.
    Using symmetric orthogonalization.

  ==> Pre-Iterations <==

  SCF Guess: Superposition of Atomic Densities via on-the-fly atomic UHF (no occupation information).

   -------------------------
    Irrep   Nso     Nmo    
   -------------------------
     A        247     247 
   -------------------------
    Total     247     247
   -------------------------

  ==> Iterations <==

                           Total Energy        Delta E     RMS |[F,P]|

   @DF-RKS iter SAD:  -460.52654513897374   -4.60527e+02   0.00000e+00 
   @DF-RKS iter   1:  -460.65204958476022   -1.25504e-01   1.20699e-03 DIIS/ADIIS
   @DF-RKS iter   2:  -460.65627897615735   -4.22939e-03   1.00405e-03 DIIS/ADIIS
   @DF-RKS iter   3:  -460.67721846830466   -2.09395e-02   9.28119e-05 DIIS
   @DF-RKS iter   4:  -460.67748442436260   -2.65956e-04   1.84925e-05 DIIS
   @DF-RKS iter   5:  -460.67749406239437   -9.63803e-06   2.58427e-06 DIIS
   @DF-RKS iter   6:  -460.67749370365181    3.58743e-07   1.27279e-07 DIIS
   @DF-RKS iter   7:  -460.67749369963462    4.01718e-09   7.82274e-09 DIIS
  Energy and wave function converged.


  ==> Post-Iterations <==

   Electrons on quadrature grid:
      Ntotal   =   17.9999987739 ; deviation = -1.226e-06 

    Orbital Energies [Eh]
    ---------------------

    Doubly Occupied:                                                      

       1A   -101.839157     2A     -9.660366     3A     -7.395085  
       4A     -7.386746     5A     -7.386746     6A     -0.975572  
       7A     -0.595418     8A     -0.462819     9A     -0.462819  

    Virtual:                                                              

      10A     -0.130164    11A     -0.013971    12A      0.005341  
      13A      0.018511    14A      0.018523    15A      0.083981  
      16A      0.105251    17A      0.105253    18A      0.130394  
      19A      0.130395    20A      0.200716    21A      0.212402  
      22A      0.212402    23A      0.252994    24A      0.256553  
      25A      0.256554    26A      0.376447    27A      0.406239  
      28A      0.406244    29A      0.497840    30A      0.506656  
      31A      0.506656    32A      0.571306    33A      0.681946  
      34A      0.681949    35A      0.705644    36A      0.802992  
      37A      0.807130    38A      0.807136    39A      0.823330  
      40A      0.843527    41A      0.934907    42A      0.934921  
      43A      0.976584    44A      0.976588    45A      0.997783  
      46A      0.997783    47A      1.014570    48A      1.047885  
      49A      1.047887    50A      1.097003    51A      1.105853  
      52A      1.105862    53A      1.143233    54A      1.172975  
      55A      1.172976    56A      1.206822    57A      1.208028  
      58A      1.218900    59A      1.218902    60A      1.313513  
      61A      1.313514    62A      1.315449    63A      1.329376  
      64A      1.633586    65A      1.688253    66A      1.688253  
      67A      1.849510    68A      1.949851    69A      1.949853  
      70A      1.990333    71A      2.110617    72A      2.110618  
      73A      2.156297    74A      2.156301    75A      2.199242  
      76A      2.341024    77A      2.391940    78A      2.391940  
      79A      2.401683    80A      2.401683    81A      2.491261  
      82A      2.498059    83A      2.498064    84A      2.543388  
      85A      2.624987    86A      2.624994    87A      2.695319  
      88A      2.731660    89A      2.731665    90A      2.788839  
      91A      2.835071    92A      2.835082    93A      2.868347  
      94A      2.868353    95A      2.868731    96A      2.991586  
      97A      3.047181    98A      3.103677    99A      3.103678  
     100A      3.204174   101A      3.208574   102A      3.208574  
     103A      3.287621   104A      3.287625   105A      3.306538  
     106A      3.353933   107A      3.353937   108A      3.414068  
     109A      3.453867   110A      3.454937   111A      3.483850  
     112A      3.483850   113A      3.588256   114A      3.599575  
     115A      3.599577   116A      3.647688   117A      3.647688  
     118A      3.757981   119A      3.757982   120A      3.805172  
     121A      3.805392   122A      3.809891   123A      3.826675  
     124A      3.826675   125A      3.874317   126A      3.874317  
     127A      4.095906   128A      4.122037   129A      4.156775  
     130A      4.156776   131A      4.187012   132A      4.273576  
     133A      4.370509   134A      4.370524   135A      4.597431  
     136A      4.695210   137A      4.695212   138A      4.920445  
     139A      4.920452   140A      5.065892   141A      5.244619  
     142A      5.682782   143A      5.692122   144A      5.835566  
     145A      5.835571   146A      6.188781   147A      6.188781  
     148A      6.341112   149A      6.341115   150A      6.401948  
     151A      6.401949   152A      6.421077   153A      6.530145  
     154A      6.638584   155A      6.638593   156A      6.934220  
     157A      6.934223   158A      6.937351   159A      7.085018  
     160A      7.085025   161A      7.269282   162A      7.298726  
     163A      7.298731   164A      7.360097   165A      7.508569  
     166A      7.640773   167A      7.644271   168A      7.644276  
     169A      7.818910   170A      7.838149   171A      7.838154  
     172A      7.971104   173A      7.971111   174A      8.011094  
     175A      8.131671   176A      8.131671   177A      8.236167  
     178A      8.349601   179A      8.349607   180A      8.466511  
     181A      8.466515   182A      8.482311   183A      8.519604  
     184A      8.531943   185A      8.531945   186A      8.627833  
     187A      8.634854   188A      8.634861   189A      8.847310  
     190A      8.877717   191A      8.877719   192A      8.913790  
     193A      8.980725   194A      9.095613   195A      9.147212  
     196A      9.147216   197A      9.176910   198A      9.246193  
     199A      9.246194   200A      9.336899   201A      9.617723  
     202A      9.617738   203A      9.631982   204A      9.808391  
     205A      9.913453   206A      9.913468   207A     10.080094  
     208A     10.147644   209A     10.147644   210A     10.449383  
     211A     10.519901   212A     10.519902   213A     10.574722  
     214A     10.574722   215A     10.663571   216A     10.663572  
     217A     10.856697   218A     10.856708   219A     11.015766  
     220A     11.291704   221A     11.683631   222A     11.683642  
     223A     11.996658   224A     12.195082   225A     12.195096  
     226A     12.627711   227A     13.520425   228A     13.711545  
     229A     13.711551   230A     14.038544   231A     14.121857  
     232A     14.121864   233A     14.414475   234A     14.414482  
     235A     14.430998   236A     15.957984   237A     18.092531  
     238A     18.092545   239A     25.385709   240A     28.954604  
     241A     41.696914   242A     41.696914   243A     41.855699  
     244A     70.154775   245A     98.499487   246A    318.545892  
     247A    526.025576  

    Final Occupation by Irrep:
              A 
    DOCC [     9 ]
    NA   [     9 ]
    NB   [     9 ]

  @DF-RKS Final Energy:  -460.67749369963462

   => Energetics <=

    Nuclear Repulsion Energy =              6.6967004737335758
    One-Electron Energy =                -649.3449002834253179
    Two-Electron Energy =                 203.4299652137160876
    DFT Exchange-Correlation Energy =     -21.4592591036589653
    Empirical Dispersion Energy =           0.0000000000000000
    VV10 Nonlocal Energy =                  0.0000000000000000
    Total Energy =                       -460.6774936996346241

Computation Completed


Properties will be evaluated at   0.000000,   0.000000,   0.000000 [a0]

Properties computed using the SCF density matrix


 Multipole Moments:

 ------------------------------------------------------------------------------------
     Multipole            Electronic (a.u.)      Nuclear  (a.u.)        Total (a.u.)
 ------------------------------------------------------------------------------------

 L = 1.  Multiply by 2.5417464519 to convert [e a0] to [Debye]
 Dipole X            :          0.0000120           -0.0000065            0.0000055
 Dipole Y            :        -32.0529464           31.5785674           -0.4743790
 Dipole Z            :         -0.0000000            0.0000000           -0.0000000
 Magnitude           :                                                    0.4743790

 ------------------------------------------------------------------------------------

*** tstop() called on cmpsrv002 at Thu Sep 19 14:23:26 2024
Module time:
	user time   =      18.43 seconds =       0.31 minutes
	system time =       2.26 seconds =       0.04 minutes
	total time  =        108 seconds =       1.80 minutes
Total time:
	user time   =      58.63 seconds =       0.98 minutes
	system time =       5.17 seconds =       0.09 minutes
	total time  =        443 seconds =       7.38 minutes
   => Libint2 <=

    Primary   basis highest AM E, G, H:  6, 6, 3
    Auxiliary basis highest AM E, G, H:  7, 7, 4
    Onebody   basis highest AM E, G, H:  -, -, -
    Solid Harmonics ordering:            Gaussian

*** tstart() called on cmpsrv002
*** at Thu Sep 19 14:23:26 2024

   => Loading Basis Set <=

    Name: THIS_BASIS
    Role: ORBITAL
    Keyword: BASIS
    atoms 1, 4-6 entry H          line    15 file /home/vance/anaconda3/envs/p4env/share/psi4/basis/def2-qzvp.gbs 
    atoms 2      entry CL         line   809 file /home/vance/anaconda3/envs/p4env/share/psi4/basis/def2-qzvp.gbs 
    atoms 3      entry N          line   242 file /home/vance/anaconda3/envs/p4env/share/psi4/basis/def2-qzvp.gbs 


         ---------------------------------------------------------
                          SAPT(DFT): DFT Monomer B                 
         ---------------------------------------------------------
                                   SCF
               by Justin Turney, Rob Parrish, Andy Simmonett
                          and Daniel G. A. Smith
                              RKS Reference
                        4 Threads,   7629 MiB Core
         ---------------------------------------------------------

  ==> Geometry <==

    Molecular point group: c1
    Full point group: Cs

    Geometry (in Angstrom), charge = 0, multiplicity = 1:

       Center              X                  Y                   Z               Mass       
    ------------   -----------------  -----------------  -----------------  -----------------
      Gh(H)          -0.000000190144    -0.340349544265     0.000000000000     1.007825032230
      Gh(CL)         -0.000000190144     1.003000455735     0.000000000000    34.968852682000
         N           -0.000000190144    -1.976049544265     0.000000000000    14.003074004430
         H           -0.473180190144    -2.335059544265     0.819580000000     1.007825032230
         H           -0.473180190144    -2.335059544265    -0.819580000000     1.007825032230
         H            0.946369809856    -2.335059544265     0.000000000000     1.007825032230

  Running in c1 symmetry.

  Rotational constants: A =      6.22544  B =      0.15636  C =      0.15636 [cm^-1]
  Rotational constants: A = 186633.95025  B =   4687.50822  C =   4687.50787 [MHz]
  Nuclear repulsion =   11.947542838505763

  Charge       = 0
  Multiplicity = 1
  Electrons    = 10
  Nalpha       = 5
  Nbeta        = 5

  ==> Algorithm <==

  SCF Algorithm Type is DF.
  DIIS enabled.
  MOM disabled.
  Fractional occupation disabled.
  Guess Type is SAD.
  Energy threshold   = 1.00e-08
  Density threshold  = 1.00e-08
  Integral threshold = 1.00e-12

  ==> Primary Basis <==

  Basis Set: THIS_BASIS
    Blend: DEF2-QZVP
    Number of shells: 79
    Number of basis functions: 247
    Number of Cartesian functions: 298
    Spherical Harmonics?: true
    Max angular momentum: 4

  ==> DFT Potential <==

   => LibXC <=

    Version 6.2.2
    S. Lehtola, C. Steigemann, M. J.T. Oliveira, and M. A.L. Marques.,  SoftwareX 7, 15 (2018) (10.1016/j.softx.2017.11.002)

   => Composite Functional: PBE0 <= 

    PBE0 Hyb-GGA Exchange-Correlation Functional

    C. Adamo and V. Barone.,  J. Chem. Phys. 110, 6158 (1999) (10.1063/1.478522)
    M. Ernzerhof and G. E. Scuseria.,  J. Chem. Phys. 110, 5029 (1999) (10.1063/1.478401)

    Deriv               =              1
    GGA                 =           TRUE
    Meta                =          FALSE

    Exchange Hybrid     =           TRUE
    MP2 Hybrid          =          FALSE

   => Exchange Functionals <=

    0.7500   Perdew, Burke & Ernzerhof

   => Exact (HF) Exchange <=

    0.2500               HF 

   => Correlation Functionals <=

    1.0000   Perdew, Burke & Ernzerhof

   => LibXC Density Thresholds  <==

    XC_HYB_GGA_XC_PBEH:  1.00E-15 

   => Asymptotic Correction <=

    X Functional        =    XC_GGA_X_LB
    C Functional        =   XC_LDA_C_VWN
    Bulk Shift          =       0.113162
    GRAC Alpha          =       0.500000
    GRAC Beta           =      40.000000

   => Molecular Quadrature <=

    Radial Scheme          =       TREUTLER
    Pruning Scheme         =           NONE
    Nuclear Scheme         =       TREUTLER

    Blocking Scheme        =         OCTREE
    BS radius alpha        =              1
    Pruning alpha          =              1
    Radial Points          =             75
    Spherical Points       =            302
    Total Points           =         130366
    Total Blocks           =           1040
    Max Points             =            256
    Max Functions          =            234
    Weights Tolerance      =       1.00E-15

   => Loading Basis Set <=

    Name: (THIS_BASIS AUX)
    Role: JKFIT
    Keyword: DF_BASIS_SCF
    atoms 1, 4-6 entry H          line    18 file /home/vance/anaconda3/envs/p4env/share/psi4/basis/def2-universal-jkfit.gbs 
    atoms 2      entry CL         line   986 file /home/vance/anaconda3/envs/p4env/share/psi4/basis/def2-universal-jkfit.gbs 
    atoms 3      entry N          line   258 file /home/vance/anaconda3/envs/p4env/share/psi4/basis/def2-universal-jkfit.gbs 

  ==> Integral Setup <==

  ==> DiskDFJK: Density-Fitted J/K Matrices <==

    J tasked:                  Yes
    K tasked:                  Yes
    wK tasked:                  No
    OpenMP threads:              4
    Integrals threads:           4
    Memory [MiB]:             4979
    Algorithm:                Core
    Integral Cache:           SAVE
    Schwarz Cutoff:          1E-12
    Fitting Condition:       1E-10

   => Auxiliary Basis Set <=

  Basis Set: (THIS_BASIS AUX)
    Blend: DEF2-UNIVERSAL-JKFIT
    Number of shells: 87
    Number of basis functions: 277
    Number of Cartesian functions: 328
    Spherical Harmonics?: true
    Max angular momentum: 4

  Cached 100.0% of DFT collocation blocks in 0.725 [GiB].

  Minimum eigenvalue in the overlap matrix is 1.0813700412E-04.
  Reciprocal condition number of the overlap matrix is 1.2744364375E-05.
    Using symmetric orthogonalization.

  ==> Pre-Iterations <==

  SCF Guess: Superposition of Atomic Densities via on-the-fly atomic UHF (no occupation information).

   -------------------------
    Irrep   Nso     Nmo    
   -------------------------
     A        247     247 
   -------------------------
    Total     247     247
   -------------------------

  ==> Iterations <==

                           Total Energy        Delta E     RMS |[F,P]|

   @DF-RKS iter SAD:   -56.06961054108928   -5.60696e+01   0.00000e+00 
   @DF-RKS iter   1:   -56.28031682953526   -2.10706e-01   3.14604e-03 DIIS/ADIIS
   @DF-RKS iter   2:   -56.01876255160705    2.61554e-01   4.12996e-03 DIIS/ADIIS
   @DF-RKS iter   3:   -56.51878416245593   -5.00022e-01   2.20910e-04 DIIS/ADIIS
   @DF-RKS iter   4:   -56.52027286542969   -1.48870e-03   1.96005e-05 DIIS
   @DF-RKS iter   5:   -56.52028038562887   -7.52020e-06   5.14346e-06 DIIS
   @DF-RKS iter   6:   -56.52028042410763   -3.84788e-08   1.97301e-07 DIIS
   @DF-RKS iter   7:   -56.52028038424567    3.98620e-08   2.59416e-08 DIIS
   @DF-RKS iter   8:   -56.52028037485890    9.38677e-09   2.96947e-09 DIIS
  Energy and wave function converged.


  ==> Post-Iterations <==

   Electrons on quadrature grid:
      Ntotal   =    9.9999935966 ; deviation = -6.403e-06 

    Orbital Energies [Eh]
    ---------------------

    Doubly Occupied:                                                      

       1A    -14.471879     2A     -0.987848     3A     -0.590399  
       4A     -0.590397     5A     -0.392669  

    Virtual:                                                              

       6A     -0.084381     7A     -0.015454     8A     -0.015452  
       9A      0.007961    10A      0.078406    11A      0.078413  
      12A      0.115012    13A      0.145116    14A      0.145118  
      15A      0.155580    16A      0.263660    17A      0.268059  
      18A      0.270496    19A      0.270500    20A      0.311438  
      21A      0.311439    22A      0.402767    23A      0.522558  
      24A      0.587366    25A      0.587369    26A      0.615325  
      27A      0.615677    28A      0.615679    29A      0.657497  
      30A      0.657533    31A      0.677913    32A      0.702647  
      33A      0.702647    34A      0.780000    35A      0.794591  
      36A      0.794602    37A      0.813039    38A      0.824681  
      39A      0.824690    40A      0.872588    41A      0.946865  
      42A      0.946873    43A      1.051286    44A      1.056230  
      45A      1.056231    46A      1.077685    47A      1.078387  
      48A      1.217948    49A      1.217949    50A      1.308538  
      51A      1.534997    52A      1.608459    53A      1.608461  
      54A      1.657083    55A      1.657119    56A      1.684160  
      57A      1.694942    58A      1.696538    59A      1.914504  
      60A      1.914508    61A      1.955859    62A      1.955860  
      63A      2.014248    64A      2.042209    65A      2.061379  
      66A      2.061381    67A      2.111812    68A      2.111814  
      69A      2.129327    70A      2.149875    71A      2.187136  
      72A      2.187140    73A      2.243623    74A      2.243625  
      75A      2.299831    76A      2.299836    77A      2.329375  
      78A      2.329384    79A      2.349632    80A      2.373706  
      81A      2.373711    82A      2.414257    83A      2.516808  
      84A      2.543363    85A      2.543369    86A      2.579309  
      87A      2.579311    88A      2.588740    89A      2.640040  
      90A      2.804768    91A      2.804784    92A      2.830281  
      93A      2.855360    94A      2.855371    95A      2.901511  
      96A      2.922800    97A      2.922812    98A      2.988086  
      99A      3.161049   100A      3.161050   101A      3.193738  
     102A      3.366029   103A      3.482784   104A      3.568696  
     105A      3.568704   106A      3.698684   107A      3.698686  
     108A      3.774311   109A      3.909342   110A      3.969800  
     111A      3.969816   112A      4.071975   113A      4.167919  
     114A      4.202783   115A      4.202786   116A      4.420201  
     117A      4.420749   118A      4.448425   119A      4.448447  
     120A      4.612782   121A      4.612796   122A      4.787449  
     123A      4.971567   124A      4.971575   125A      5.226598  
     126A      5.226598   127A      5.413407   128A      5.413408  
     129A      5.468372   130A      5.631291   131A      5.712334  
     132A      5.712831   133A      5.721306   134A      5.721319  
     135A      5.758798   136A      5.758803   137A      5.812805  
     138A      5.812822   139A      5.858154   140A      5.858154  
     141A      5.898824   142A      5.965008   143A      5.974206  
     144A      5.974216   145A      6.153785   146A      6.203726  
     147A      6.215193   148A      6.294277   149A      6.294281  
     150A      6.296377   151A      6.418832   152A      6.418841  
     153A      6.420914   154A      6.518657   155A      6.518658  
     156A      6.640726   157A      6.685664   158A      6.735640  
     159A      6.735646   160A      6.835629   161A      6.935669  
     162A      6.935680   163A      7.012232   164A      7.012244  
     165A      7.172491   166A      7.172496   167A      7.231316  
     168A      7.231330   169A      7.243534   170A      7.389779  
     171A      7.568156   172A      7.568163   173A      7.581756  
     174A      7.631595   175A      7.725335   176A      7.725345  
     177A      7.807979   178A      7.857907   179A      7.857916  
     180A      7.989978   181A      7.989984   182A      7.999634  
     183A      8.047625   184A      8.062830   185A      8.129484  
     186A      8.129485   187A      8.172817   188A      8.271119  
     189A      8.327691   190A      8.327691   191A      8.405143  
     192A      8.405146   193A      8.515764   194A      8.539448  
     195A      8.539451   196A      8.637265   197A      8.779472  
     198A      8.779493   199A      9.003594   200A      9.003614  
     201A      9.039993   202A      9.170163   203A      9.170164  
     204A      9.472141   205A      9.472142   206A      9.489246  
     207A      9.570538   208A      9.570546   209A      9.697497  
     210A      9.697497   211A      9.771715   212A      9.992135  
     213A      9.992144   214A     10.031501   215A     10.099006  
     216A     10.584736   217A     11.058129   218A     11.123031  
     219A     11.123032   220A     11.543153   221A     11.572746  
     222A     11.572752   223A     11.776864   224A     11.776882  
     225A     11.898805   226A     12.231099   227A     14.284507  
     228A     14.284512   229A     15.105177   230A     15.462200  
     231A     21.605979   232A     21.605979   233A     21.619490  
     234A     21.619490   235A     21.746978   236A     21.746978  
     237A     21.864723   238A     22.468966   239A     35.755965  
     240A     38.332288   241A     85.594848   242A    118.073710  
     243A    118.073710   244A    118.112631   245A    197.833099  
     246A    234.093485   247A   1052.084053  

    Final Occupation by Irrep:
              A 
    DOCC [     5 ]
    NA   [     5 ]
    NB   [     5 ]

  @DF-RKS Final Energy:   -56.52028037485890

   => Energetics <=

    Nuclear Repulsion Energy =             11.9475428385057629
    One-Electron Energy =                 -99.6883257064966983
    Two-Electron Energy =                  37.2636309750402006
    DFT Exchange-Correlation Energy =      -6.0431284819081679
    Empirical Dispersion Energy =           0.0000000000000000
    VV10 Nonlocal Energy =                  0.0000000000000000
    Total Energy =                        -56.5202803748588991

Computation Completed


Properties will be evaluated at   0.000000,   0.000000,   0.000000 [a0]

Properties computed using the SCF density matrix


 Multipole Moments:

 ------------------------------------------------------------------------------------
     Multipole            Electronic (a.u.)      Nuclear  (a.u.)        Total (a.u.)
 ------------------------------------------------------------------------------------

 L = 1.  Multiply by 2.5417464519 to convert [e a0] to [Debye]
 Dipole X            :         -0.0000068            0.0000153            0.0000085
 Dipole Y            :         38.7916483          -39.3772162           -0.5855679
 Dipole Z            :         -0.0000000            0.0000000           -0.0000000
 Magnitude           :                                                    0.5855679

 ------------------------------------------------------------------------------------

*** tstop() called on cmpsrv002 at Thu Sep 19 14:25:00 2024
Module time:
	user time   =      19.25 seconds =       0.32 minutes
	system time =       0.65 seconds =       0.01 minutes
	total time  =         94 seconds =       1.57 minutes
Total time:
	user time   =      77.88 seconds =       1.30 minutes
	system time =       5.82 seconds =       0.10 minutes
	total time  =        537 seconds =       8.95 minutes

         ---------------------------------------------------------
               SAPT(DFT): Intermolecular Interaction Segment       

                   by Daniel G. A. Smith and Rob Parrish           
         ---------------------------------------------------------

  ==> Algorithm <==

   SAPT DFT Functional             PBE0
   Monomer A GRAC Shift        0.116251
   Monomer B GRAC Shift        0.113162
   Delta HF                        True
   JK Algorithm                      DF

  ==> Preparing SAPT Data Cache <== 

  ==> DiskDFJK: Density-Fitted J/K Matrices <==

    J tasked:                  Yes
    K tasked:                  Yes
    wK tasked:                  No
    OpenMP threads:              4
    Integrals threads:           4
    Memory [MiB]:             4979
    Algorithm:                Core
    Integral Cache:           SAVE
    Schwarz Cutoff:          1E-12
    Fitting Condition:       1E-10

   => Auxiliary Basis Set <=

  Basis Set: (THIS_BASIS AUX)
    Blend: DEF2-UNIVERSAL-JKFIT
    Number of shells: 87
    Number of basis functions: 277
    Number of Cartesian functions: 328
    Spherical Harmonics?: true
    Max angular momentum: 4


  ==> E10 Electostatics <== 

    Elst10,r                        -39.04150730 [mEh]

  ==> E10 Exchange <== 

    Exch10(S^2)                      57.46649079 [mEh]
    Exch10                           59.95992666 [mEh]

  ==> E20 Induction <== 

   => Uncoupled Induction <= 

    Ind20,u (A<-B)                   -9.91512727 [mEh]
    Ind20,u (A->B)                  -22.57702003 [mEh]
    Ind20,u                         -32.49214730 [mEh]
    Exch-Ind20,u (A<-B)               6.74765238 [mEh]
    Exch-Ind20,u (A->B)              12.51498260 [mEh]
    Exch-Ind20,u                     19.26263498 [mEh]
    Exch-Ind20,u (A<-B) (S^inf)       7.41281454 [mEh]
    Exch-Ind20,u (A->B) (S^inf)      13.94937480 [mEh]
    Exch-Ind20,u (S^inf)             21.36218935 [mEh]

   => Coupled Induction <= 

   ---------------------------------------------------
              SAPT Coupled Induction Solver           
   ---------------------------------------------------
    Maxiter             =          20
    Convergence         =   1.000E-06
   ---------------------------------------------------
     Iter       (A<-B)           (B->A)      Time [s]
   ---------------------------------------------------
    Guess    1.703287e-01     1.434479e-01          1
        1    3.306607e-02     5.408401e-02          2
        2    9.594180e-03     1.791861e-02          3
        3    2.202944e-03     1.538052e-03          4
        4    1.970128e-04     1.223509e-04          5
        5    4.188934e-05     8.173811e-06          6
        6    2.702533e-06     8.384598e-07*         7
        7    2.765882e-07*    8.384598e-07*         8
   ---------------------------------------------------

    Ind20,r (A<-B)                   -9.94627731 [mEh]
    Ind20,r (A->B)                  -23.97425120 [mEh]
    Ind20,r                         -33.92052851 [mEh]
    Exch-Ind20,r (A<-B)               7.38970162 [mEh]
    Exch-Ind20,r (A->B)              14.02832295 [mEh]
    Exch-Ind20,r                     21.41802457 [mEh]
    Exch-Ind20,r (A<-B) (S^inf)       8.12574969 [mEh]
    Exch-Ind20,r (A->B) (S^inf)      15.64838810 [mEh]
    Exch-Ind20,r (S^inf)             23.77413779 [mEh]
   => Loading Basis Set <=

    Name: (THIS_BASIS AUX)
    Role: RIFIT
    Keyword: DF_BASIS_MP2
    atoms 1, 4-6 entry H          line    23 file /home/vance/anaconda3/envs/p4env/share/psi4/basis/def2-qzvp-ri.gbs 
    atoms 2      entry CL         line  1113 file /home/vance/anaconda3/envs/p4env/share/psi4/basis/def2-qzvp-ri.gbs 
    atoms 3      entry N          line   337 file /home/vance/anaconda3/envs/p4env/share/psi4/basis/def2-qzvp-ri.gbs 



  ==> E20 Dispersion (CHF FDDS) <== 

   Legendre Points:          10
   Lambda Shift:          0.300
   Fxc Kernal:             ALDA
   (P|Fxc|Q) Thresh:  1.000e-06
  DFHelper Memory: AOs need 0.248 GiB; user supplied 5.960 GiB. 
  Using in-core AOs.

  ==> DFHelper <==
    NBF:                             247
    NAux:                            532
    Schwarz Cutoff:                1E-12
    Mask sparsity (%):                 5
    DFH Avail. Memory [GiB]:       5.960
    OpenMP threads:                    4
    Algorithm:                    DIRECT
    AO Core:                        True
    MO Core:                       False
    Hold Metric:                   False
    Metric Power:                  0.000
    Fitting Condition:             1E-12
    Q Shell Max:                      11


  DFHelper Memory: AOs need 0.261 GiB; user supplied 5.960 GiB. 
  Using in-core AOs.


   => Time Integration <= 

       Omega       Weight       Disp20,u         Disp20   time [s]
   2.269e+01    6.667e-02      3.366e-04      3.162e-04          0
   4.147e+00    1.495e-01      5.540e-03      5.014e-03          0
   1.572e+00    2.191e-01      1.604e-02      1.347e-02          0
   7.589e-01    2.693e-01      2.554e-02      1.934e-02          1
   4.049e-01    2.955e-01      2.706e-02      1.875e-02          1
   2.223e-01    2.955e-01      2.154e-02      1.424e-02          1
   1.186e-01    2.693e-01      1.464e-02      9.514e-03          2
   5.727e-02    2.191e-01      9.125e-03      5.901e-03          2
   2.170e-02    1.495e-01      5.116e-03      3.305e-03          3
   3.966e-03    6.667e-02      2.042e-03      1.319e-03          3

    Disp20,u                        -20.20908484 [mEh]
    Disp20                          -14.50953468 [mEh]

  ==> E20 Dispersion (MP2) <== 


    Disp20 (MP2)                    -20.13534845 [mEh]
    Exch-Disp20,u                     4.48720185 [mEh]
    Scaling Scheme                    FIXED
    Scaling Factor                    0.770
    Est. Exch-Disp20,r                3.45514543 [mEh]

   SAPT(DFT) Results
  ---------------------------------------------------------------------------------------------------------
    Electrostatics                  -39.04150730 [mEh]    -24.49891570 [kcal/mol]   -102.50346330 [kJ/mol]
      Elst1,r                       -39.04150730 [mEh]    -24.49891570 [kcal/mol]   -102.50346330 [kJ/mol]

    Exchange                         59.95992666 [mEh]     37.62542203 [kcal/mol]    157.42476576 [kJ/mol]
      Exch1                          59.95992666 [mEh]     37.62542203 [kcal/mol]    157.42476576 [kJ/mol]
      Exch1(S^2)                     57.46649079 [mEh]     36.06076740 [kcal/mol]    150.87825079 [kJ/mol]

    Induction                       -26.65253086 [mEh]    -16.72471562 [kcal/mol]    -69.97621014 [kJ/mol]
      Ind2,r                        -33.92052851 [mEh]    -21.28545300 [kcal/mol]    -89.05833533 [kJ/mol]
      Exch-Ind2,r                    21.41802457 [mEh]     13.44001333 [kcal/mol]     56.23301576 [kJ/mol]
      Induction (A<-B)               -2.55657569 [mEh]     -1.60427547 [kcal/mol]     -6.71228855 [kJ/mol]
      Induction (A->B)               -9.94592825 [mEh]     -6.24116420 [kcal/mol]    -26.11303102 [kJ/mol]
      delta HF,r (2)                -14.15002692 [mEh]     -8.87927595 [kcal/mol]    -37.15089056 [kJ/mol]

    Dispersion                      -11.05438925 [mEh]     -6.93673398 [kcal/mol]    -29.02329498 [kJ/mol]
      Disp2,r                       -14.50953468 [mEh]     -9.10487047 [kcal/mol]    -38.09477804 [kJ/mol]
      Disp2,u                       -20.13534845 [mEh]    -12.63512191 [kcal/mol]    -52.86535006 [kJ/mol]
      Est. Exch-Disp2,r               3.45514543 [mEh]      2.16813649 [kcal/mol]      9.07148307 [kJ/mol]
      Exch-Disp2,u                    4.48720185 [mEh]      2.81576167 [kcal/mol]     11.78114684 [kJ/mol]

    Total SAPT(DFT)                 -16.78850075 [mEh]    -10.53494327 [kcal/mol]    -44.07820266 [kJ/mol]
  ---------------------------------------------------------------------------------------------------------

*** tstop() called on cmpsrv002 at Thu Sep 19 15:05:04 2024
Module time:
	user time   =     125.28 seconds =       2.09 minutes
	system time =      14.28 seconds =       0.24 minutes
	total time  =       2498 seconds =      41.63 minutes
Total time:
	user time   =     183.91 seconds =       3.07 minutes
	system time =      19.45 seconds =       0.32 minutes
	total time  =       2941 seconds =      49.02 minutes

    Psi4 stopped on: Thursday, 19 September 2024 03:05PM
    Psi4 wall time for execution: 0:49:01.40

*** Psi4 exiting successfully. Buy a developer a beer!
