
    -----------------------------------------------------------------------
          Psi4: An Open-Source Ab Initio Electronic Structure Package
                               Psi4 1.9.1 release

                         Git: Rev {} zzzzzzz 


    D. G. A. Smith, L. A. Burns, A. C. Simmonett, R. M. Parrish,
    M. C. Schieber, R. Galvelis, P. Kraus, H. Kruse, R. Di Remigio,
    A. Alenaizan, A. M. James, S. Lehtola, J. P. Misiewicz, M. Scheurer,
    R. A. Shaw, J. B. Schriber, Y. Xie, Z. L. Glick, D. A. Sirianni,
    J. S. O'Brien, J. M. Waldrop, A. Kumar, E. G. Hohenstein,
    B. P. Pritchard, B. R. Brooks, H. F. Schaefer III, A. Yu. Sokolov,
    K. Patkowski, A. E. DePrince III, U. Bozkaya, R. A. King,
    F. A. Evangelista, J. M. Turney, T. D. Crawford, C. D. Sherrill,
    J. Chem. Phys. 152(18) 184108 (2020). https://doi.org/10.1063/5.0006002

                            Additional Code Authors
    E. T. Seidl, C. L. Janssen, E. F. Valeev, M. L. Leininger,
    J. F. Gonthier, R. M. Richard, H. R. McAlexander, M. Saitow, X. Wang,
    P. Verma, M. H. Lechner, A. Jiang, S. Behnle, A. G. Heide,
    M. F. Herbst, and D. L. Poole

             Previous Authors, Complete List of Code Contributors,
                       and Citations for Specific Modules
    https://github.com/psi4/psi4/blob/master/codemeta.json
    https://github.com/psi4/psi4/graphs/contributors
    http://psicode.org/psi4manual/master/introduction.html#citing-psifour

    -----------------------------------------------------------------------


    Psi4 started on: Thursday, 19 September 2024 02:16PM

    Process ID: 605858
    Host:       cmpsrv002
    PSIDATADIR: /home/vance/anaconda3/envs/p4env/share/psi4
    Memory:     500.0 MiB
    Threads:    8
    
  ==> Input File <==

--------------------------------------------------------------------------
#charge=0 charge_a=0 charge_b=0 selection_a=1-2 selection_b=3-6 scaling=1.5 benchmark_Eint=-5.261 benchmark_unit=kcal/mol group=XH-N
set_num_threads(4)
memory 8 GB
basis this_basis {
    assign    def2-qzvp
}

molecule {
     0 1
    --
     0 1
     H        0.00000       -0.31269        0.00000
    Cl       -0.00000        1.03066        0.00000
    --
     0 1
     N        0.00000       -2.89538        0.00000
     H       -0.47318       -3.25439        0.81958
     H       -0.47318       -3.25439       -0.81958
     H        0.94637       -3.25439        0.00000
}

set {
    sapt_dft_functional     PBE0
    scf_type                DF
    freeze_core             true
    sapt_dft_grac_shift_a    0.116251
    sapt_dft_grac_shift_b    0.113162
    sapt_dft_do_hybrid      true
    do_ind_exch_sinf        true
    do_disp_exch_sinf       true
}

nrg = energy('sapt(DFT)')
--------------------------------------------------------------------------
  Threads set to 4 by Python driver.

  Memory set to   7.451 GiB by Python driver.

Scratch directory: /scratch2/vance/psi4/

*** tstart() called on cmpsrv002
*** at Thu Sep 19 14:16:08 2024

  SAPT does not make use of molecular symmetry, further calculations in C1 point group.

         ---------------------------------------------------------
                            SAPT(DFT) Procedure                    

                           by Daniel G. A. Smith                   
         ---------------------------------------------------------

Warning! The default value of SAPT_DFT_EXCH_DISP_SCALE_SCHEME has changed from DISP to FIXED. Please be careful comparing results with earlier versions. 

  ==> Algorithm <==

   SAPT DFT Functional             PBE0
   Monomer A GRAC Shift        0.116251
   Monomer B GRAC Shift        0.113162
   Delta HF                        True
   JK Algorithm                      DF

   Required computations:
     HF  (Dimer)
     HF  (Monomer A)
     HF  (Monomer B)
     DFT (Monomer A)
     DFT (Monomer B)

   => Libint2 <=

    Primary   basis highest AM E, G, H:  6, 6, 3
    Auxiliary basis highest AM E, G, H:  7, 7, 4
    Onebody   basis highest AM E, G, H:  -, -, -
    Solid Harmonics ordering:            Gaussian

*** tstart() called on cmpsrv002
*** at Thu Sep 19 14:16:08 2024

   => Loading Basis Set <=

    Name: THIS_BASIS
    Role: ORBITAL
    Keyword: BASIS
    atoms 1, 4-6 entry H          line    15 file /home/vance/anaconda3/envs/p4env/share/psi4/basis/def2-qzvp.gbs 
    atoms 2      entry CL         line   809 file /home/vance/anaconda3/envs/p4env/share/psi4/basis/def2-qzvp.gbs 
    atoms 3      entry N          line   242 file /home/vance/anaconda3/envs/p4env/share/psi4/basis/def2-qzvp.gbs 


         ---------------------------------------------------------
                         SAPT(DFT): delta HF Dimer                 
         ---------------------------------------------------------
                                   SCF
               by Justin Turney, Rob Parrish, Andy Simmonett
                          and Daniel G. A. Smith
                              RHF Reference
                        4 Threads,   7629 MiB Core
         ---------------------------------------------------------

  ==> Geometry <==

    Molecular point group: c1
    Full point group: Cs

    Geometry (in Angstrom), charge = 0, multiplicity = 1:

       Center              X                  Y                   Z               Mass       
    ------------   -----------------  -----------------  -----------------  -----------------
         H           -0.000000190144    -0.036142183656     0.000000000000     1.007825032230
         CL          -0.000000190144     1.307207816344     0.000000000000    34.968852682000
         N           -0.000000190144    -2.618832183656     0.000000000000    14.003074004430
         H           -0.473180190144    -2.977842183656     0.819580000000     1.007825032230
         H           -0.473180190144    -2.977842183656    -0.819580000000     1.007825032230
         H            0.946369809856    -2.977842183656     0.000000000000     1.007825032230

  Running in c1 symmetry.

  Rotational constants: A =      6.22544  B =      0.09164  C =      0.09164 [cm^-1]
  Rotational constants: A = 186633.95025  B =   2747.25844  C =   2747.25832 [MHz]
  Nuclear repulsion =   42.781812637227944

  Charge       = 0
  Multiplicity = 1
  Electrons    = 28
  Nalpha       = 14
  Nbeta        = 14

  ==> Algorithm <==

  SCF Algorithm Type is DF.
  DIIS enabled.
  MOM disabled.
  Fractional occupation disabled.
  Guess Type is SAD.
  Energy threshold   = 1.00e-08
  Density threshold  = 1.00e-08
  Integral threshold = 1.00e-12

  ==> Primary Basis <==

  Basis Set: THIS_BASIS
    Blend: DEF2-QZVP
    Number of shells: 79
    Number of basis functions: 247
    Number of Cartesian functions: 298
    Spherical Harmonics?: true
    Max angular momentum: 4

   => Loading Basis Set <=

    Name: (THIS_BASIS AUX)
    Role: JKFIT
    Keyword: DF_BASIS_SCF
    atoms 1, 4-6 entry H          line    18 file /home/vance/anaconda3/envs/p4env/share/psi4/basis/def2-universal-jkfit.gbs 
    atoms 2      entry CL         line   986 file /home/vance/anaconda3/envs/p4env/share/psi4/basis/def2-universal-jkfit.gbs 
    atoms 3      entry N          line   258 file /home/vance/anaconda3/envs/p4env/share/psi4/basis/def2-universal-jkfit.gbs 

  ==> Integral Setup <==

  ==> DiskDFJK: Density-Fitted J/K Matrices <==

    J tasked:                  Yes
    K tasked:                  Yes
    wK tasked:                  No
    OpenMP threads:              4
    Integrals threads:           4
    Memory [MiB]:             5722
    Algorithm:                Core
    Integral Cache:           SAVE
    Schwarz Cutoff:          1E-12
    Fitting Condition:       1E-10

   => Auxiliary Basis Set <=

  Basis Set: (THIS_BASIS AUX)
    Blend: DEF2-UNIVERSAL-JKFIT
    Number of shells: 87
    Number of basis functions: 277
    Number of Cartesian functions: 328
    Spherical Harmonics?: true
    Max angular momentum: 4

  Minimum eigenvalue in the overlap matrix is 1.5041429506E-04.
  Reciprocal condition number of the overlap matrix is 1.8774898398E-05.
    Using symmetric orthogonalization.

  ==> Pre-Iterations <==

  SCF Guess: Superposition of Atomic Densities via on-the-fly atomic UHF (no occupation information).

   -------------------------
    Irrep   Nso     Nmo    
   -------------------------
     A        247     247 
   -------------------------
    Total     247     247
   -------------------------

  ==> Iterations <==

                           Total Energy        Delta E     RMS |[F,P]|

   @DF-RHF iter SAD:  -515.54976878741820   -5.15550e+02   0.00000e+00 
   @DF-RHF iter   1:  -516.23296657707510   -6.83198e-01   1.99001e-03 ADIIS/DIIS
   @DF-RHF iter   2:  -516.31322255846271   -8.02560e-02   1.06886e-03 ADIIS/DIIS
   @DF-RHF iter   3:  -516.33927608101942   -2.60535e-02   1.28902e-04 ADIIS/DIIS
   @DF-RHF iter   4:  -516.34026358971005   -9.87509e-04   4.57705e-05 DIIS
   @DF-RHF iter   5:  -516.34035450232761   -9.09126e-05   1.12580e-05 DIIS
   @DF-RHF iter   6:  -516.34036481700230   -1.03147e-05   2.65807e-06 DIIS
   @DF-RHF iter   7:  -516.34036555876048   -7.41758e-07   6.59167e-07 DIIS
   @DF-RHF iter   8:  -516.34036559718686   -3.84264e-08   1.44304e-07 DIIS
   @DF-RHF iter   9:  -516.34036559832100   -1.13414e-09   3.29110e-08 DIIS
   @DF-RHF iter  10:  -516.34036559840138   -8.03766e-11   6.52947e-09 DIIS
  Energy and wave function converged.


  ==> Post-Iterations <==

    Orbital Energies [Eh]
    ---------------------

    Doubly Occupied:                                                      

       1A   -104.828167     2A    -15.559889     3A    -10.552343  
       4A     -8.019452     5A     -8.017964     6A     -8.017964  
       7A     -1.160138     8A     -1.083257     9A     -0.650855  
      10A     -0.650852    11A     -0.589668    12A     -0.454581  
      13A     -0.454581    14A     -0.448389  

    Virtual:                                                              

      15A      0.089980    16A      0.147920    17A      0.147920  
      18A      0.157389    19A      0.250416    20A      0.273025  
      21A      0.273025    22A      0.286926    23A      0.327795  
      24A      0.327796    25A      0.335307    26A      0.460274  
      27A      0.460275    28A      0.500189    29A      0.508081  
      30A      0.508082    31A      0.515382    32A      0.515382  
      33A      0.545836    34A      0.545837    35A      0.559595  
      36A      0.638097    37A      0.792298    38A      0.817077  
      39A      0.817077    40A      0.853654    41A      0.920793  
      42A      0.932496    43A      0.932497    44A      1.019804  
      45A      1.019804    46A      1.059824    47A      1.059826  
      48A      1.063114    49A      1.087646    50A      1.217151  
      51A      1.232557    52A      1.266403    53A      1.266404  
      54A      1.321840    55A      1.321840    56A      1.384405  
      57A      1.411219    58A      1.411219    59A      1.412858  
      60A      1.412858    61A      1.437382    62A      1.437382  
      63A      1.452765    64A      1.530020    65A      1.530304  
      66A      1.530304    67A      1.580110    68A      1.580114  
      69A      1.730636    70A      1.766208    71A      1.766208  
      72A      1.901070    73A      1.901071    74A      2.155754  
      75A      2.245419    76A      2.290654    77A      2.290655  
      78A      2.327574    79A      2.327983    80A      2.327984  
      81A      2.378345    82A      2.461071    83A      2.461074  
      84A      2.496973    85A      2.496973    86A      2.514885  
      87A      2.514885    88A      2.581327    89A      2.581329  
      90A      2.639155    91A      2.639157    92A      2.649824  
      93A      2.723124    94A      2.819430    95A      2.819432  
      96A      2.834465    97A      2.927185    98A      2.947876  
      99A      2.974445   100A      2.974445   101A      3.029663  
     102A      3.039765   103A      3.039768   104A      3.182382  
     105A      3.182389   106A      3.224509   107A      3.295254  
     108A      3.473975   109A      3.512672   110A      3.512673  
     111A      3.597637   112A      3.597637   113A      3.600585  
     114A      3.680511   115A      3.680511   116A      3.739730  
     117A      3.940901   118A      3.940905   119A      3.949265  
     120A      3.949265   121A      3.965337   122A      3.981579  
     123A      3.981579   124A      4.072889   125A      4.072889  
     126A      4.155286   127A      4.266502   128A      4.288020  
     129A      4.288020   130A      4.321454   131A      4.321458  
     132A      4.334138   133A      4.334138   134A      4.371578  
     135A      4.371578   136A      4.413033   137A      4.413036  
     138A      4.557847   139A      4.616206   140A      4.616207  
     141A      4.882929   142A      4.891168   143A      4.891168  
     144A      5.000365   145A      5.155496   146A      5.402650  
     147A      5.402659   148A      6.115832   149A      6.115860  
     150A      6.127563   151A      6.127565   152A      6.245736  
     153A      6.245740   154A      6.263563   155A      6.315859  
     156A      6.352579   157A      6.352587   158A      6.671021  
     159A      6.671021   160A      6.779693   161A      6.821619  
     162A      6.901656   163A      6.901662   164A      6.959348  
     165A      7.091653   166A      7.091656   167A      7.254017  
     168A      7.298578   169A      7.298584   170A      7.365332  
     171A      7.365338   172A      7.490191   173A      7.577761  
     174A      7.577762   175A      7.587837   176A      7.653133  
     177A      7.675450   178A      7.675453   179A      7.854312  
     180A      7.955950   181A      7.973544   182A      7.973545  
     183A      8.118140   184A      8.118143   185A      8.239693  
     186A      8.239694   187A      8.264604   188A      8.269245  
     189A      8.269247   190A      8.324558   191A      8.356285  
     192A      8.356291   193A      8.408966   194A      8.408966  
     195A      8.435238   196A      8.492731   197A      8.647991  
     198A      8.664118   199A      8.664121   200A      8.795886  
     201A      8.795886   202A      8.843149   203A      8.873794  
     204A      8.873802   205A      8.903964   206A      9.019011  
     207A      9.028328   208A      9.028332   209A      9.245585  
     210A      9.429300   211A      9.527286   212A      9.527296  
     213A      9.829310   214A      9.829314   215A     10.050581  
     216A     10.100997   217A     10.101002   218A     10.289188  
     219A     10.466014   220A     10.520926   221A     10.520929  
     222A     10.563371   223A     11.296206   224A     11.296206  
     225A     11.381910   226A     11.381910   227A     11.575855  
     228A     11.677176   229A     11.677177   230A     11.984794  
     231A     12.069871   232A     12.100491   233A     12.100498  
     234A     12.288485   235A     12.288498   236A     12.453335  
     237A     14.816604   238A     14.816606   239A     15.687941  
     240A     29.813170   241A     39.382263   242A     43.296575  
     243A     43.296575   244A     43.440246   245A    100.222556  
     246A    200.487639   247A    530.445739  

    Final Occupation by Irrep:
              A 
    DOCC [    14 ]
    NA   [    14 ]
    NB   [    14 ]

  @DF-RHF Final Energy:  -516.34036559840138

   => Energetics <=

    Nuclear Repulsion Energy =             42.7818126372279437
    One-Electron Energy =                -797.2681544331201167
    Two-Electron Energy =                 238.1459761974908247
    Total Energy =                       -516.3403655984013767

Computation Completed


Properties will be evaluated at   0.000000,   0.000000,   0.000000 [a0]

Properties computed using the SCF density matrix


 Multipole Moments:

 ------------------------------------------------------------------------------------
     Multipole            Electronic (a.u.)      Nuclear  (a.u.)        Total (a.u.)
 ------------------------------------------------------------------------------------

 L = 1.  Multiply by 2.5417464519 to convert [e a0] to [Debye]
 Dipole X            :         -0.0000060            0.0000088            0.0000028
 Dipole Y            :          8.2305185           -9.5978456           -1.3673271
 Dipole Z            :         -0.0000000            0.0000000           -0.0000000
 Magnitude           :                                                    1.3673271

 ------------------------------------------------------------------------------------

*** tstop() called on cmpsrv002 at Thu Sep 19 14:18:51 2024
Module time:
	user time   =      11.26 seconds =       0.19 minutes
	system time =       1.05 seconds =       0.02 minutes
	total time  =        163 seconds =       2.72 minutes
Total time:
	user time   =      11.27 seconds =       0.19 minutes
	system time =       1.05 seconds =       0.02 minutes
	total time  =        163 seconds =       2.72 minutes
   => Libint2 <=

    Primary   basis highest AM E, G, H:  6, 6, 3
    Auxiliary basis highest AM E, G, H:  7, 7, 4
    Onebody   basis highest AM E, G, H:  -, -, -
    Solid Harmonics ordering:            Gaussian

*** tstart() called on cmpsrv002
*** at Thu Sep 19 14:18:51 2024

   => Loading Basis Set <=

    Name: THIS_BASIS
    Role: ORBITAL
    Keyword: BASIS
    atoms 1, 4-6 entry H          line    15 file /home/vance/anaconda3/envs/p4env/share/psi4/basis/def2-qzvp.gbs 
    atoms 2      entry CL         line   809 file /home/vance/anaconda3/envs/p4env/share/psi4/basis/def2-qzvp.gbs 
    atoms 3      entry N          line   242 file /home/vance/anaconda3/envs/p4env/share/psi4/basis/def2-qzvp.gbs 


         ---------------------------------------------------------
                       SAPT(DFT): delta HF Monomer A               
         ---------------------------------------------------------
                                   SCF
               by Justin Turney, Rob Parrish, Andy Simmonett
                          and Daniel G. A. Smith
                              RHF Reference
                        4 Threads,   7629 MiB Core
         ---------------------------------------------------------

  ==> Geometry <==

    Molecular point group: c1
    Full point group: Cs

    Geometry (in Angstrom), charge = 0, multiplicity = 1:

       Center              X                  Y                   Z               Mass       
    ------------   -----------------  -----------------  -----------------  -----------------
         H           -0.000000190144    -0.036142183656     0.000000000000     1.007825032230
         CL          -0.000000190144     1.307207816344     0.000000000000    34.968852682000
      Gh(N)          -0.000000190144    -2.618832183656     0.000000000000    14.003074004430
      Gh(H)          -0.473180190144    -2.977842183656     0.819580000000     1.007825032230
      Gh(H)          -0.473180190144    -2.977842183656    -0.819580000000     1.007825032230
      Gh(H)           0.946369809856    -2.977842183656     0.000000000000     1.007825032230

  Running in c1 symmetry.

  Rotational constants: A =      6.22544  B =      0.09164  C =      0.09164 [cm^-1]
  Rotational constants: A = 186633.95025  B =   2747.25844  C =   2747.25832 [MHz]
  Nuclear repulsion =    6.696700473733579

  Charge       = 0
  Multiplicity = 1
  Electrons    = 18
  Nalpha       = 9
  Nbeta        = 9

  ==> Algorithm <==

  SCF Algorithm Type is DF.
  DIIS enabled.
  MOM disabled.
  Fractional occupation disabled.
  Guess Type is SAD.
  Energy threshold   = 1.00e-08
  Density threshold  = 1.00e-08
  Integral threshold = 1.00e-12

  ==> Primary Basis <==

  Basis Set: THIS_BASIS
    Blend: DEF2-QZVP
    Number of shells: 79
    Number of basis functions: 247
    Number of Cartesian functions: 298
    Spherical Harmonics?: true
    Max angular momentum: 4

   => Loading Basis Set <=

    Name: (THIS_BASIS AUX)
    Role: JKFIT
    Keyword: DF_BASIS_SCF
    atoms 1, 4-6 entry H          line    18 file /home/vance/anaconda3/envs/p4env/share/psi4/basis/def2-universal-jkfit.gbs 
    atoms 2      entry CL         line   986 file /home/vance/anaconda3/envs/p4env/share/psi4/basis/def2-universal-jkfit.gbs 
    atoms 3      entry N          line   258 file /home/vance/anaconda3/envs/p4env/share/psi4/basis/def2-universal-jkfit.gbs 

  ==> Integral Setup <==

  ==> DiskDFJK: Density-Fitted J/K Matrices <==

    J tasked:                  Yes
    K tasked:                  Yes
    wK tasked:                  No
    OpenMP threads:              4
    Integrals threads:           4
    Memory [MiB]:             5722
    Algorithm:                Core
    Integral Cache:           SAVE
    Schwarz Cutoff:          1E-12
    Fitting Condition:       1E-10

   => Auxiliary Basis Set <=

  Basis Set: (THIS_BASIS AUX)
    Blend: DEF2-UNIVERSAL-JKFIT
    Number of shells: 87
    Number of basis functions: 277
    Number of Cartesian functions: 328
    Spherical Harmonics?: true
    Max angular momentum: 4

  Minimum eigenvalue in the overlap matrix is 1.5041429506E-04.
  Reciprocal condition number of the overlap matrix is 1.8774898398E-05.
    Using symmetric orthogonalization.

  ==> Pre-Iterations <==

  SCF Guess: Superposition of Atomic Densities via on-the-fly atomic UHF (no occupation information).

   -------------------------
    Irrep   Nso     Nmo    
   -------------------------
     A        247     247 
   -------------------------
    Total     247     247
   -------------------------

  ==> Iterations <==

                           Total Energy        Delta E     RMS |[F,P]|

   @DF-RHF iter SAD:  -459.87337639752110   -4.59873e+02   0.00000e+00 
   @DF-RHF iter   1:  -460.08524197262420   -2.11866e-01   8.93036e-04 ADIIS/DIIS
   @DF-RHF iter   2:  -460.10551269463792   -2.02707e-02   3.75176e-04 ADIIS/DIIS
   @DF-RHF iter   3:  -460.10838666786515   -2.87397e-03   6.56621e-05 DIIS
   @DF-RHF iter   4:  -460.10874038212398   -3.53714e-04   2.09010e-05 DIIS
   @DF-RHF iter   5:  -460.10878548285240   -4.51007e-05   3.59638e-06 DIIS
   @DF-RHF iter   6:  -460.10878659450862   -1.11166e-06   7.84517e-07 DIIS
   @DF-RHF iter   7:  -460.10878661696773   -2.24591e-08   1.67619e-07 DIIS
   @DF-RHF iter   8:  -460.10878661885056   -1.88282e-09   3.28870e-08 DIIS
   @DF-RHF iter   9:  -460.10878661892508   -7.45217e-11   4.86657e-09 DIIS
  Energy and wave function converged.


  ==> Post-Iterations <==

    Orbital Energies [Eh]
    ---------------------

    Doubly Occupied:                                                      

       1A   -104.851943     2A    -10.575689     3A     -8.042802  
       4A     -8.041165     5A     -8.041165     6A     -1.104790  
       7A     -0.611003     8A     -0.475118     9A     -0.475118  

    Virtual:                                                              

      10A      0.054034    11A      0.126108    12A      0.138099  
      13A      0.138099    14A      0.230886    15A      0.237230  
      16A      0.275019    17A      0.275019    18A      0.322602  
      19A      0.322602    20A      0.324655    21A      0.343435  
      22A      0.441337    23A      0.441337    24A      0.495517  
      25A      0.495517    26A      0.544401    27A      0.544402  
      28A      0.555775    29A      0.602238    30A      0.655387  
      31A      0.655388    32A      0.759338    33A      0.829318  
      34A      0.829318    35A      0.895992    36A      0.910199  
      37A      0.944606    38A      0.970619    39A      0.970620  
      40A      1.010232    41A      1.070679    42A      1.081512  
      43A      1.081512    44A      1.112948    45A      1.112949  
      46A      1.269272    47A      1.301749    48A      1.301750  
      49A      1.313079    50A      1.357803    51A      1.357803  
      52A      1.402213    53A      1.405555    54A      1.405555  
      55A      1.417563    56A      1.417563    57A      1.441348  
      58A      1.441349    59A      1.509992    60A      1.509992  
      61A      1.538837    62A      1.561758    63A      1.561770  
      64A      1.592551    65A      1.792801    66A      1.792801  
      67A      2.025320    68A      2.143477    69A      2.143479  
      70A      2.151692    71A      2.303581    72A      2.303581  
      73A      2.354152    74A      2.447048    75A      2.447049  
      76A      2.473042    77A      2.487285    78A      2.487286  
      79A      2.533206    80A      2.533206    81A      2.546021  
      82A      2.659551    83A      2.659553    84A      2.684400  
      85A      2.757165    86A      2.803896    87A      2.803899  
      88A      2.847890    89A      2.847891    90A      2.879338  
      91A      2.915136    92A      2.915136    93A      2.953808  
      94A      2.953809    95A      2.964915    96A      3.094546  
      97A      3.170256    98A      3.170258    99A      3.182191  
     100A      3.306516   101A      3.436893   102A      3.439178  
     103A      3.439180   104A      3.479841   105A      3.577238  
     106A      3.577238   107A      3.653070   108A      3.653070  
     109A      3.742503   110A      3.742505   111A      3.756935  
     112A      3.862970   113A      3.926956   114A      3.926959  
     115A      3.928352   116A      3.928353   117A      3.961957  
     118A      3.961957   119A      4.049478   120A      4.049478  
     121A      4.197379   122A      4.267682   123A      4.267682  
     124A      4.284722   125A      4.313784   126A      4.313785  
     127A      4.349766   128A      4.349766   129A      4.366248  
     130A      4.366248   131A      4.380351   132A      4.421441  
     133A      4.546625   134A      4.546634   135A      4.850136  
     136A      4.865833   137A      4.865833   138A      5.064334  
     139A      5.064340   140A      5.066751   141A      5.395980  
     142A      6.010189   143A      6.010194   144A      6.088993  
     145A      6.089044   146A      6.422897   147A      6.422901  
     148A      6.463215   149A      6.463217   150A      6.549462  
     151A      6.561817   152A      6.642567   153A      6.642567  
     154A      6.758902   155A      6.758909   156A      6.860799  
     157A      7.125388   158A      7.125396   159A      7.319304  
     160A      7.319304   161A      7.354104   162A      7.360282  
     163A      7.360291   164A      7.417221   165A      7.629442  
     166A      7.647429   167A      7.773135   168A      7.773137  
     169A      7.930575   170A      8.136483   171A      8.136489  
     172A      8.138907   173A      8.211460   174A      8.211460  
     175A      8.247890   176A      8.341371   177A      8.379199  
     178A      8.379199   179A      8.443797   180A      8.443802  
     181A      8.577302   182A      8.577302   183A      8.731171  
     184A      8.731176   185A      8.752766   186A      8.752768  
     187A      8.762295   188A      8.782689   189A      8.907248  
     190A      8.961024   191A      8.961027   192A      8.980893  
     193A      8.980901   194A      8.998239   195A      9.007306  
     196A      9.131304   197A      9.224866   198A      9.321463  
     199A      9.321463   200A      9.484729   201A      9.572306  
     202A      9.693308   203A      9.693323   204A      9.956432  
     205A     10.076311   206A     10.076321   207A     10.166055  
     208A     10.166056   209A     10.256126   210A     10.456683  
     211A     10.697124   212A     10.697124   213A     10.979258  
     214A     10.979269   215A     11.200484   216A     11.274243  
     217A     11.274243   218A     11.298992   219A     11.358908  
     220A     11.358908   221A     11.762055   222A     11.762066  
     223A     11.966345   224A     12.353524   225A     12.353537  
     226A     12.770040   227A     13.690166   228A     13.850693  
     229A     13.850698   230A     14.127915   231A     14.285634  
     232A     14.285639   233A     14.553767   234A     14.564492  
     235A     14.564497   236A     16.007689   237A     18.175034  
     238A     18.175044   239A     25.512117   240A     29.790676  
     241A     43.273220   242A     43.273220   243A     43.416576  
     244A     70.270229   245A    100.199137   246A    318.617056  
     247A    530.422072  

    Final Occupation by Irrep:
              A 
    DOCC [     9 ]
    NA   [     9 ]
    NB   [     9 ]

  @DF-RHF Final Energy:  -460.10878661892508

   => Energetics <=

    Nuclear Repulsion Energy =              6.6967004737335794
    One-Electron Energy =                -649.1733901252732721
    Two-Electron Energy =                 182.3679030326146631
    Total Energy =                       -460.1087866189250235

Computation Completed


Properties will be evaluated at   0.000000,   0.000000,   0.000000 [a0]

Properties computed using the SCF density matrix


 Multipole Moments:

 ------------------------------------------------------------------------------------
     Multipole            Electronic (a.u.)      Nuclear  (a.u.)        Total (a.u.)
 ------------------------------------------------------------------------------------

 L = 1.  Multiply by 2.5417464519 to convert [e a0] to [Debye]
 Dipole X            :          0.0000065           -0.0000065           -0.0000000
 Dipole Y            :        -42.4319280           41.9262021           -0.5057259
 Dipole Z            :         -0.0000000            0.0000000           -0.0000000
 Magnitude           :                                                    0.5057259

 ------------------------------------------------------------------------------------

*** tstop() called on cmpsrv002 at Thu Sep 19 14:20:12 2024
Module time:
	user time   =      10.03 seconds =       0.17 minutes
	system time =       0.77 seconds =       0.01 minutes
	total time  =         81 seconds =       1.35 minutes
Total time:
	user time   =      21.30 seconds =       0.36 minutes
	system time =       1.82 seconds =       0.03 minutes
	total time  =        244 seconds =       4.07 minutes
   => Libint2 <=

    Primary   basis highest AM E, G, H:  6, 6, 3
    Auxiliary basis highest AM E, G, H:  7, 7, 4
    Onebody   basis highest AM E, G, H:  -, -, -
    Solid Harmonics ordering:            Gaussian

*** tstart() called on cmpsrv002
*** at Thu Sep 19 14:20:12 2024

   => Loading Basis Set <=

    Name: THIS_BASIS
    Role: ORBITAL
    Keyword: BASIS
    atoms 1, 4-6 entry H          line    15 file /home/vance/anaconda3/envs/p4env/share/psi4/basis/def2-qzvp.gbs 
    atoms 2      entry CL         line   809 file /home/vance/anaconda3/envs/p4env/share/psi4/basis/def2-qzvp.gbs 
    atoms 3      entry N          line   242 file /home/vance/anaconda3/envs/p4env/share/psi4/basis/def2-qzvp.gbs 


         ---------------------------------------------------------
                       SAPT(DFT): delta HF Monomer B               
         ---------------------------------------------------------
                                   SCF
               by Justin Turney, Rob Parrish, Andy Simmonett
                          and Daniel G. A. Smith
                              RHF Reference
                        4 Threads,   7629 MiB Core
         ---------------------------------------------------------

  ==> Geometry <==

    Molecular point group: c1
    Full point group: Cs

    Geometry (in Angstrom), charge = 0, multiplicity = 1:

       Center              X                  Y                   Z               Mass       
    ------------   -----------------  -----------------  -----------------  -----------------
      Gh(H)          -0.000000190144    -0.036142183656     0.000000000000     1.007825032230
      Gh(CL)         -0.000000190144     1.307207816344     0.000000000000    34.968852682000
         N           -0.000000190144    -2.618832183656     0.000000000000    14.003074004430
         H           -0.473180190144    -2.977842183656     0.819580000000     1.007825032230
         H           -0.473180190144    -2.977842183656    -0.819580000000     1.007825032230
         H            0.946369809856    -2.977842183656     0.000000000000     1.007825032230

  Running in c1 symmetry.

  Rotational constants: A =      6.22544  B =      0.09164  C =      0.09164 [cm^-1]
  Rotational constants: A = 186633.95025  B =   2747.25844  C =   2747.25832 [MHz]
  Nuclear repulsion =   11.947542838505761

  Charge       = 0
  Multiplicity = 1
  Electrons    = 10
  Nalpha       = 5
  Nbeta        = 5

  ==> Algorithm <==

  SCF Algorithm Type is DF.
  DIIS enabled.
  MOM disabled.
  Fractional occupation disabled.
  Guess Type is SAD.
  Energy threshold   = 1.00e-08
  Density threshold  = 1.00e-08
  Integral threshold = 1.00e-12

  ==> Primary Basis <==

  Basis Set: THIS_BASIS
    Blend: DEF2-QZVP
    Number of shells: 79
    Number of basis functions: 247
    Number of Cartesian functions: 298
    Spherical Harmonics?: true
    Max angular momentum: 4

   => Loading Basis Set <=

    Name: (THIS_BASIS AUX)
    Role: JKFIT
    Keyword: DF_BASIS_SCF
    atoms 1, 4-6 entry H          line    18 file /home/vance/anaconda3/envs/p4env/share/psi4/basis/def2-universal-jkfit.gbs 
    atoms 2      entry CL         line   986 file /home/vance/anaconda3/envs/p4env/share/psi4/basis/def2-universal-jkfit.gbs 
    atoms 3      entry N          line   258 file /home/vance/anaconda3/envs/p4env/share/psi4/basis/def2-universal-jkfit.gbs 

  ==> Integral Setup <==

  ==> DiskDFJK: Density-Fitted J/K Matrices <==

    J tasked:                  Yes
    K tasked:                  Yes
    wK tasked:                  No
    OpenMP threads:              4
    Integrals threads:           4
    Memory [MiB]:             5722
    Algorithm:                Core
    Integral Cache:           SAVE
    Schwarz Cutoff:          1E-12
    Fitting Condition:       1E-10

   => Auxiliary Basis Set <=

  Basis Set: (THIS_BASIS AUX)
    Blend: DEF2-UNIVERSAL-JKFIT
    Number of shells: 87
    Number of basis functions: 277
    Number of Cartesian functions: 328
    Spherical Harmonics?: true
    Max angular momentum: 4

  Minimum eigenvalue in the overlap matrix is 1.5041429506E-04.
  Reciprocal condition number of the overlap matrix is 1.8774898398E-05.
    Using symmetric orthogonalization.

  ==> Pre-Iterations <==

  SCF Guess: Superposition of Atomic Densities via on-the-fly atomic UHF (no occupation information).

   -------------------------
    Irrep   Nso     Nmo    
   -------------------------
     A        247     247 
   -------------------------
    Total     247     247
   -------------------------

  ==> Iterations <==

                           Total Energy        Delta E     RMS |[F,P]|

   @DF-RHF iter SAD:   -55.65240318465991   -5.56524e+01   0.00000e+00 
   @DF-RHF iter   1:   -56.12994184456038   -4.77539e-01   1.85969e-03 DIIS/ADIIS
   @DF-RHF iter   2:   -56.19696687079982   -6.70250e-02   1.07197e-03 DIIS/ADIIS
   @DF-RHF iter   3:   -56.22381230485844   -2.68454e-02   9.94992e-05 DIIS
   @DF-RHF iter   4:   -56.22444095791545   -6.28653e-04   1.84809e-05 DIIS
   @DF-RHF iter   5:   -56.22446142099365   -2.04631e-05   3.44199e-06 DIIS
   @DF-RHF iter   6:   -56.22446261586010   -1.19487e-06   8.59587e-07 DIIS
   @DF-RHF iter   7:   -56.22446269504594   -7.91858e-08   1.89532e-07 DIIS
   @DF-RHF iter   8:   -56.22446269914702   -4.10108e-09   2.99348e-08 DIIS
   @DF-RHF iter   9:   -56.22446269924902   -1.02006e-10   8.41707e-09 DIIS
  Energy and wave function converged.


  ==> Post-Iterations <==

    Orbital Energies [Eh]
    ---------------------

    Doubly Occupied:                                                      

       1A    -15.538633     2A     -1.139250     3A     -0.630516  
       4A     -0.630514     5A     -0.425170  

    Virtual:                                                              

       6A      0.096322     7A      0.121881     8A      0.157192  
       9A      0.157193    10A      0.208954    11A      0.208954  
      12A      0.218661    13A      0.325035    14A      0.325036  
      15A      0.332803    16A      0.384130    17A      0.482007  
      18A      0.518099    19A      0.522125    20A      0.522126  
      21A      0.551871    22A      0.551873    23A      0.656041  
      24A      0.720241    25A      0.720241    26A      0.757631  
      27A      0.757631    28A      0.764700    29A      0.764700  
      30A      0.806250    31A      0.868932    32A      0.884105  
      33A      0.898088    34A      0.898088    35A      0.948921  
      36A      0.992360    37A      0.992361    38A      1.073481  
      39A      1.077270    40A      1.077271    41A      1.096793  
      42A      1.096794    43A      1.162055    44A      1.269650  
      45A      1.293892    46A      1.293892    47A      1.333658  
      48A      1.403197    49A      1.432046    50A      1.432047  
      51A      1.566293    52A      1.778471    53A      1.778471  
      54A      1.807368    55A      1.807370    56A      1.815378  
      57A      1.850252    58A      1.850252    59A      2.038991  
      60A      2.038991    61A      2.132120    62A      2.133443  
      63A      2.133443    64A      2.249637    65A      2.308311  
      66A      2.308311    67A      2.344556    68A      2.394633  
      69A      2.394633    70A      2.396534    71A      2.408871  
      72A      2.433512    73A      2.433512    74A      2.478992  
      75A      2.478995    76A      2.519119    77A      2.519120  
      78A      2.526161    79A      2.540022    80A      2.540022  
      81A      2.607692    82A      2.607694    83A      2.635364  
      84A      2.635366    85A      2.765522    86A      2.788004  
      87A      2.833638    88A      2.833641    89A      2.880227  
      90A      2.914275    91A      2.914275    92A      3.031497  
      93A      3.060394    94A      3.060397    95A      3.119942  
      96A      3.200718    97A      3.200725    98A      3.241364  
      99A      3.275386   100A      3.355684   101A      3.355684  
     102A      3.499214   103A      3.541710   104A      3.541711  
     105A      3.617625   106A      3.879016   107A      3.963316  
     108A      3.963320   109A      4.105960   110A      4.176701  
     111A      4.371045   112A      4.371053   113A      4.541186  
     114A      4.541187   115A      4.562671   116A      4.562671  
     117A      4.590322   118A      4.633589   119A      4.633590  
     120A      4.701352   121A      4.701352   122A      5.075066  
     123A      5.283524   124A      5.336430   125A      5.336430  
     126A      5.420149   127A      5.420157   128A      5.498906  
     129A      5.498906   130A      5.760966   131A      5.808310  
     132A      5.808310   133A      5.828480   134A      5.828480  
     135A      5.838247   136A      5.838247   137A      6.147256  
     138A      6.147258   139A      6.193873   140A      6.259961  
     141A      6.264674   142A      6.264678   143A      6.302422  
     144A      6.334707   145A      6.371806   146A      6.371814  
     147A      6.409844   148A      6.409844   149A      6.413282  
     150A      6.413304   151A      6.596531   152A      6.596531  
     153A      6.766625   154A      6.798585   155A      6.922941  
     156A      6.922947   157A      6.940115   158A      7.093249  
     159A      7.093249   160A      7.112419   161A      7.112422  
     162A      7.272601   163A      7.345161   164A      7.345172  
     165A      7.563233   166A      7.591477   167A      7.591477  
     168A      7.662596   169A      7.693029   170A      7.693032  
     171A      7.844392   172A      7.945018   173A      7.980094  
     174A      7.980095   175A      8.085007   176A      8.085008  
     177A      8.142473   178A      8.142474   179A      8.181030  
     180A      8.284150   181A      8.291966   182A      8.291968  
     183A      8.335352   184A      8.380060   185A      8.380065  
     186A      8.453263   187A      8.512030   188A      8.667878  
     189A      8.689354   190A      8.689358   191A      8.822764  
     192A      8.822764   193A      8.864779   194A      8.888592  
     195A      8.888601   196A      8.944643   197A      9.048212  
     198A      9.048216   199A      9.061852   200A      9.226242  
     201A      9.226242   202A      9.455303   203A      9.484529  
     204A      9.484529   205A      9.548264   206A      9.548274  
     207A      9.849648   208A      9.849651   209A      9.988530  
     210A     10.122820   211A     10.122825   212A     10.153502  
     213A     10.310060   214A     10.541163   215A     10.541166  
     216A     10.576239   217A     11.596832   218A     11.697112  
     219A     11.697114   220A     12.084755   221A     12.108604  
     222A     12.120849   223A     12.120857   224A     12.309546  
     225A     12.309559   226A     12.472984   227A     14.836583  
     228A     14.836585   229A     15.405009   230A     15.708726  
     231A     21.709500   232A     21.709500   233A     21.733983  
     234A     21.733983   235A     21.830433   236A     21.830433  
     237A     21.945125   238A     22.483034   239A     35.687823  
     240A     39.403939   241A     85.533519   242A    118.191642  
     243A    118.191642   244A    118.229796   245A    200.509084  
     246A    234.011820   247A   1051.752612  

    Final Occupation by Irrep:
              A 
    DOCC [     5 ]
    NA   [     5 ]
    NB   [     5 ]

  @DF-RHF Final Energy:   -56.22446269924902

   => Energetics <=

    Nuclear Repulsion Energy =             11.9475428385057612
    One-Electron Energy =                 -99.6158442325532718
    Two-Electron Energy =                  31.4438386947984938
    Total Energy =                        -56.2244626992490240

Computation Completed


Properties will be evaluated at   0.000000,   0.000000,   0.000000 [a0]

Properties computed using the SCF density matrix


 Multipole Moments:

 ------------------------------------------------------------------------------------
     Multipole            Electronic (a.u.)      Nuclear  (a.u.)        Total (a.u.)
 ------------------------------------------------------------------------------------

 L = 1.  Multiply by 2.5417464519 to convert [e a0] to [Debye]
 Dipole X            :         -0.0000126            0.0000153            0.0000027
 Dipole Y            :         50.9083994          -51.5240477           -0.6156483
 Dipole Z            :         -0.0000000            0.0000000           -0.0000000
 Magnitude           :                                                    0.6156483

 ------------------------------------------------------------------------------------

*** tstop() called on cmpsrv002 at Thu Sep 19 14:21:40 2024
Module time:
	user time   =       9.45 seconds =       0.16 minutes
	system time =       0.74 seconds =       0.01 minutes
	total time  =         90 seconds =       1.50 minutes
Total time:
	user time   =      30.83 seconds =       0.51 minutes
	system time =       2.75 seconds =       0.05 minutes
	total time  =        337 seconds =       5.62 minutes

         ---------------------------------------------------------
                        SAPT(DFT): delta HF Segment                

                   by Daniel G. A. Smith and Rob Parrish           
         ---------------------------------------------------------


  ==> Preparing SAPT Data Cache <== 

  ==> DiskDFJK: Density-Fitted J/K Matrices <==

    J tasked:                  Yes
    K tasked:                  Yes
    wK tasked:                  No
    OpenMP threads:              4
    Integrals threads:           4
    Memory [MiB]:             5722
    Algorithm:                Core
    Integral Cache:           SAVE
    Schwarz Cutoff:          1E-12
    Fitting Condition:       1E-10

   => Auxiliary Basis Set <=

  Basis Set: (THIS_BASIS AUX)
    Blend: DEF2-UNIVERSAL-JKFIT
    Number of shells: 87
    Number of basis functions: 277
    Number of Cartesian functions: 328
    Spherical Harmonics?: true
    Max angular momentum: 4


  ==> E10 Electostatics <== 

    Elst10,r                         -8.19366218 [mEh]

  ==> E10 Exchange <== 

    Exch10(S^2)                       2.96956581 [mEh]
    Exch10                            2.97855425 [mEh]

  ==> E20 Induction <== 

   => Uncoupled Induction <= 

    Ind20,u (A<-B)                   -0.49517590 [mEh]
    Ind20,u (A->B)                   -0.99806767 [mEh]
    Ind20,u                          -1.49324357 [mEh]
    Exch-Ind20,u (A<-B)               0.07436482 [mEh]
    Exch-Ind20,u (A->B)               0.47294616 [mEh]
    Exch-Ind20,u                      0.54731098 [mEh]
    Exch-Ind20,u (A<-B) (S^inf)       0.07465527 [mEh]
    Exch-Ind20,u (A->B) (S^inf)       0.47680266 [mEh]
    Exch-Ind20,u (S^inf)              0.55145793 [mEh]

   => Coupled Induction <= 

   ---------------------------------------------------
              SAPT Coupled Induction Solver           
   ---------------------------------------------------
    Maxiter             =          20
    Convergence         =   1.000E-06
   ---------------------------------------------------
     Iter       (A<-B)           (B->A)      Time [s]
   ---------------------------------------------------
    Guess    2.807703e-01     1.865101e-01          0
        1    1.148191e-01     7.710126e-02          0
        2    2.139980e-02     1.980338e-02          0
        3    7.105168e-03     5.430706e-03          0
        4    1.583719e-03     9.532976e-04          0
        5    3.801002e-04     1.648778e-04          0
        6    7.721496e-05     2.742068e-05          0
        7    7.180656e-06     6.892212e-06          0
        8    1.077349e-06     1.254998e-06          0
        9    1.457740e-07*    8.333628e-08*         0
   ---------------------------------------------------

    Ind20,r (A<-B)                   -0.55357095 [mEh]
    Ind20,r (A->B)                   -1.29742920 [mEh]
    Ind20,r                          -1.85100014 [mEh]
    Exch-Ind20,r (A<-B)               0.07299449 [mEh]
    Exch-Ind20,r (A->B)               0.63599776 [mEh]
    Exch-Ind20,r                      0.70899225 [mEh]
    Exch-Ind20,r (A<-B) (S^inf)       0.07318374 [mEh]
    Exch-Ind20,r (A->B) (S^inf)       0.64128378 [mEh]
    Exch-Ind20,r (S^inf)              0.71446752 [mEh]

   Partial SAPT(HF) Results, to compute Delta HF (dHF)
  ---------------------------------------------------------------------------------------------------------
    Electrostatics                   -8.19366218 [mEh]     -5.14160064 [kcal/mol]    -21.51245708 [kJ/mol]
      Elst10,r                       -8.19366218 [mEh]     -5.14160064 [kcal/mol]    -21.51245708 [kJ/mol]

    Exchange                          2.97855425 [mEh]      1.86907101 [kcal/mol]      7.82019310 [kJ/mol]
      Exch10                          2.97855425 [mEh]      1.86907101 [kcal/mol]      7.82019310 [kJ/mol]
      Exch10(S^2)                     2.96956581 [mEh]      1.86343068 [kcal/mol]      7.79659396 [kJ/mol]

    Induction (no dHF)               -1.14200789 [mEh]     -0.71662077 [kcal/mol]     -2.99834131 [kJ/mol]
      Ind20,r                        -1.85100014 [mEh]     -1.16152013 [kcal/mol]     -4.85980021 [kJ/mol]
      Exch-Ind20,r                    0.70899225 [mEh]      0.44489935 [kcal/mol]      1.86145890 [kJ/mol]
      Induction (A<-B) (no dHF)      -0.48057645 [mEh]     -0.30156628 [kcal/mol]     -1.26175331 [kJ/mol]
      Induction (A->B) (no dHF)      -0.66143144 [mEh]     -0.41505449 [kcal/mol]     -1.73658800 [kJ/mol]

    Subtotal SAPT(HF)                -6.35711582 [mEh]     -3.98915040 [kcal/mol]    -16.69060529 [kJ/mol]
    Total HF                         -7.11628023 [mEh]     -4.46553326 [kcal/mol]    -18.68379116 [kJ/mol]
    Delta HF                         -0.75916441 [mEh]     -0.47638286 [kcal/mol]     -1.99318587 [kJ/mol]
  ---------------------------------------------------------------------------------------------------------
   Partial SAPT(HF) Results, alternate SAPT0-like display
  ---------------------------------------------------------------------------------------------------------
    Induction                        -1.90117230 [mEh]     -1.19300363 [kcal/mol]     -4.99152718 [kJ/mol]
      Ind20,r                        -1.85100014 [mEh]     -1.16152013 [kcal/mol]     -4.85980021 [kJ/mol]
      Exch-Ind20,r                    0.70899225 [mEh]      0.44489935 [kcal/mol]      1.86145890 [kJ/mol]
      delta HF,r (2)                 -0.75916441 [mEh]     -0.47638286 [kcal/mol]     -1.99318587 [kJ/mol]
      Induction (A<-B)               -0.80004582 [mEh]     -0.50203633 [kcal/mol]     -2.10052001 [kJ/mol]
      Induction (A->B)               -1.10112648 [mEh]     -0.69096730 [kcal/mol]     -2.89100717 [kJ/mol]
  ---------------------------------------------------------------------------------------------------------
   => Libint2 <=

    Primary   basis highest AM E, G, H:  6, 6, 3
    Auxiliary basis highest AM E, G, H:  7, 7, 4
    Onebody   basis highest AM E, G, H:  -, -, -
    Solid Harmonics ordering:            Gaussian

*** tstart() called on cmpsrv002
*** at Thu Sep 19 14:21:41 2024

   => Loading Basis Set <=

    Name: THIS_BASIS
    Role: ORBITAL
    Keyword: BASIS
    atoms 1, 4-6 entry H          line    15 file /home/vance/anaconda3/envs/p4env/share/psi4/basis/def2-qzvp.gbs 
    atoms 2      entry CL         line   809 file /home/vance/anaconda3/envs/p4env/share/psi4/basis/def2-qzvp.gbs 
    atoms 3      entry N          line   242 file /home/vance/anaconda3/envs/p4env/share/psi4/basis/def2-qzvp.gbs 


         ---------------------------------------------------------
                          SAPT(DFT): DFT Monomer A                 
         ---------------------------------------------------------
                                   SCF
               by Justin Turney, Rob Parrish, Andy Simmonett
                          and Daniel G. A. Smith
                              RKS Reference
                        4 Threads,   7629 MiB Core
         ---------------------------------------------------------

  ==> Geometry <==

    Molecular point group: c1
    Full point group: Cs

    Geometry (in Angstrom), charge = 0, multiplicity = 1:

       Center              X                  Y                   Z               Mass       
    ------------   -----------------  -----------------  -----------------  -----------------
         H           -0.000000190144    -0.036142183656     0.000000000000     1.007825032230
         CL          -0.000000190144     1.307207816344     0.000000000000    34.968852682000
      Gh(N)          -0.000000190144    -2.618832183656     0.000000000000    14.003074004430
      Gh(H)          -0.473180190144    -2.977842183656     0.819580000000     1.007825032230
      Gh(H)          -0.473180190144    -2.977842183656    -0.819580000000     1.007825032230
      Gh(H)           0.946369809856    -2.977842183656     0.000000000000     1.007825032230

  Running in c1 symmetry.

  Rotational constants: A =      6.22544  B =      0.09164  C =      0.09164 [cm^-1]
  Rotational constants: A = 186633.95025  B =   2747.25844  C =   2747.25832 [MHz]
  Nuclear repulsion =    6.696700473733579

  Charge       = 0
  Multiplicity = 1
  Electrons    = 18
  Nalpha       = 9
  Nbeta        = 9

  ==> Algorithm <==

  SCF Algorithm Type is DF.
  DIIS enabled.
  MOM disabled.
  Fractional occupation disabled.
  Guess Type is SAD.
  Energy threshold   = 1.00e-08
  Density threshold  = 1.00e-08
  Integral threshold = 1.00e-12

  ==> Primary Basis <==

  Basis Set: THIS_BASIS
    Blend: DEF2-QZVP
    Number of shells: 79
    Number of basis functions: 247
    Number of Cartesian functions: 298
    Spherical Harmonics?: true
    Max angular momentum: 4

  ==> DFT Potential <==

   => LibXC <=

    Version 6.2.2
    S. Lehtola, C. Steigemann, M. J.T. Oliveira, and M. A.L. Marques.,  SoftwareX 7, 15 (2018) (10.1016/j.softx.2017.11.002)

   => Composite Functional: PBE0 <= 

    PBE0 Hyb-GGA Exchange-Correlation Functional

    C. Adamo and V. Barone.,  J. Chem. Phys. 110, 6158 (1999) (10.1063/1.478522)
    M. Ernzerhof and G. E. Scuseria.,  J. Chem. Phys. 110, 5029 (1999) (10.1063/1.478401)

    Deriv               =              1
    GGA                 =           TRUE
    Meta                =          FALSE

    Exchange Hybrid     =           TRUE
    MP2 Hybrid          =          FALSE

   => Exchange Functionals <=

    0.7500   Perdew, Burke & Ernzerhof

   => Exact (HF) Exchange <=

    0.2500               HF 

   => Correlation Functionals <=

    1.0000   Perdew, Burke & Ernzerhof

   => LibXC Density Thresholds  <==

    XC_HYB_GGA_XC_PBEH:  1.00E-15 

   => Asymptotic Correction <=

    X Functional        =    XC_GGA_X_LB
    C Functional        =   XC_LDA_C_VWN
    Bulk Shift          =       0.116251
    GRAC Alpha          =       0.500000
    GRAC Beta           =      40.000000

   => Molecular Quadrature <=

    Radial Scheme          =       TREUTLER
    Pruning Scheme         =           NONE
    Nuclear Scheme         =       TREUTLER

    Blocking Scheme        =         OCTREE
    BS radius alpha        =              1
    Pruning alpha          =              1
    Radial Points          =             75
    Spherical Points       =            302
    Total Points           =         130933
    Total Blocks           =           1044
    Max Points             =            256
    Max Functions          =            232
    Weights Tolerance      =       1.00E-15

   => Loading Basis Set <=

    Name: (THIS_BASIS AUX)
    Role: JKFIT
    Keyword: DF_BASIS_SCF
    atoms 1, 4-6 entry H          line    18 file /home/vance/anaconda3/envs/p4env/share/psi4/basis/def2-universal-jkfit.gbs 
    atoms 2      entry CL         line   986 file /home/vance/anaconda3/envs/p4env/share/psi4/basis/def2-universal-jkfit.gbs 
    atoms 3      entry N          line   258 file /home/vance/anaconda3/envs/p4env/share/psi4/basis/def2-universal-jkfit.gbs 

  ==> Integral Setup <==

  ==> DiskDFJK: Density-Fitted J/K Matrices <==

    J tasked:                  Yes
    K tasked:                  Yes
    wK tasked:                  No
    OpenMP threads:              4
    Integrals threads:           4
    Memory [MiB]:             5062
    Algorithm:                Core
    Integral Cache:           SAVE
    Schwarz Cutoff:          1E-12
    Fitting Condition:       1E-10

   => Auxiliary Basis Set <=

  Basis Set: (THIS_BASIS AUX)
    Blend: DEF2-UNIVERSAL-JKFIT
    Number of shells: 87
    Number of basis functions: 277
    Number of Cartesian functions: 328
    Spherical Harmonics?: true
    Max angular momentum: 4

  Cached 100.0% of DFT collocation blocks in 0.644 [GiB].

  Minimum eigenvalue in the overlap matrix is 1.5041429506E-04.
  Reciprocal condition number of the overlap matrix is 1.8774898398E-05.
    Using symmetric orthogonalization.

  ==> Pre-Iterations <==

  SCF Guess: Superposition of Atomic Densities via on-the-fly atomic UHF (no occupation information).

   -------------------------
    Irrep   Nso     Nmo    
   -------------------------
     A        247     247 
   -------------------------
    Total     247     247
   -------------------------

  ==> Iterations <==

                           Total Energy        Delta E     RMS |[F,P]|

   @DF-RKS iter SAD:  -460.52655105836607   -4.60527e+02   0.00000e+00 
   @DF-RKS iter   1:  -460.65199098661333   -1.25440e-01   1.20682e-03 DIIS/ADIIS
   @DF-RKS iter   2:  -460.65629704213586   -4.30606e-03   1.00291e-03 DIIS/ADIIS
   @DF-RKS iter   3:  -460.67717275189716   -2.08757e-02   9.16682e-05 DIIS
   @DF-RKS iter   4:  -460.67743086890761   -2.58117e-04   1.84848e-05 DIIS
   @DF-RKS iter   5:  -460.67744052794933   -9.65904e-06   2.56556e-06 DIIS
   @DF-RKS iter   6:  -460.67744020681528    3.21134e-07   1.27143e-07 DIIS
   @DF-RKS iter   7:  -460.67744020529847    1.51681e-09   7.61075e-09 DIIS
  Energy and wave function converged.


  ==> Post-Iterations <==

   Electrons on quadrature grid:
      Ntotal   =   18.0000000053 ; deviation = 5.331e-09 

    Orbital Energies [Eh]
    ---------------------

    Doubly Occupied:                                                      

       1A   -101.839110     2A     -9.660292     3A     -7.395017  
       4A     -7.386672     5A     -7.386672     6A     -0.975517  
       7A     -0.595371     8A     -0.462745     9A     -0.462745  

    Virtual:                                                              

      10A     -0.129925    11A     -0.015295    12A      0.018216  
      13A      0.045067    14A      0.045069    15A      0.066350  
      16A      0.098222    17A      0.098226    18A      0.148743  
      19A      0.148748    20A      0.180453    21A      0.214270  
      22A      0.214270    23A      0.226804    24A      0.233183  
      25A      0.233188    26A      0.358939    27A      0.403118  
      28A      0.441975    29A      0.441995    30A      0.532624  
      31A      0.532678    32A      0.569512    33A      0.612087  
      34A      0.612141    35A      0.735146    36A      0.774514  
      37A      0.809363    38A      0.852384    39A      0.857553  
      40A      0.858537    41A      0.858544    42A      0.945820  
      43A      0.945828    44A      0.992527    45A      0.992549  
      46A      1.022255    47A      1.022320    48A      1.027607  
      49A      1.027713    50A      1.036990    51A      1.037004  
      52A      1.052078    53A      1.092116    54A      1.159501  
      55A      1.159502    56A      1.186624    57A      1.208095  
      58A      1.208096    59A      1.266045    60A      1.266060  
      61A      1.306834    62A      1.316191    63A      1.316199  
      64A      1.385229    65A      1.466956    66A      1.466956  
      67A      1.809309    68A      1.914889    69A      1.965644  
      70A      1.965645    71A      2.022260    72A      2.022277  
      73A      2.155105    74A      2.155166    75A      2.155171  
      76A      2.356063    77A      2.356064    78A      2.383906  
      79A      2.401791    80A      2.430646    81A      2.430662  
      82A      2.444073    83A      2.541394    84A      2.541394  
      85A      2.590493    86A      2.591200    87A      2.591281  
      88A      2.591281    89A      2.699106    90A      2.699198  
      91A      2.756384    92A      2.756405    93A      2.768511  
      94A      2.852295    95A      2.852326    96A      2.897749  
      97A      3.036334    98A      3.054754    99A      3.054755  
     100A      3.092179   101A      3.092179   102A      3.186593  
     103A      3.186593   104A      3.191898   105A      3.198392  
     106A      3.338899   107A      3.338949   108A      3.349297  
     109A      3.384767   110A      3.453971   111A      3.453972  
     112A      3.483944   113A      3.483944   114A      3.577646  
     115A      3.577647   116A      3.623001   117A      3.623113  
     118A      3.729890   119A      3.753113   120A      3.753114  
     121A      3.756651   122A      3.799577   123A      3.799610  
     124A      3.805460   125A      3.805461   126A      3.851116  
     127A      3.851116   128A      3.893099   129A      3.893101  
     130A      4.122407   131A      4.268797   132A      4.320928  
     133A      4.383348   134A      4.391294   135A      4.391297  
     136A      4.445263   137A      4.445304   138A      4.586063  
     139A      4.966628   140A      4.966635   141A      5.285515  
     142A      5.676635   143A      5.676705   144A      5.908362  
     145A      5.908377   146A      6.200910   147A      6.200966  
     148A      6.318198   149A      6.326878   150A      6.326879  
     151A      6.370785   152A      6.370788   153A      6.470766  
     154A      6.510809   155A      6.663985   156A      6.663994  
     157A      6.848250   158A      6.848251   159A      7.021693  
     160A      7.041415   161A      7.041426   162A      7.257057  
     163A      7.257065   164A      7.323506   165A      7.384382  
     166A      7.555291   167A      7.673353   168A      7.673356  
     169A      7.764219   170A      7.764262   171A      7.832667  
     172A      7.890458   173A      7.890459   174A      8.041276  
     175A      8.046671   176A      8.046702   177A      8.138009  
     178A      8.237630   179A      8.299325   180A      8.299326  
     181A      8.352354   182A      8.352373   183A      8.379609  
     184A      8.480272   185A      8.480277   186A      8.625473  
     187A      8.645885   188A      8.645888   189A      8.666604  
     190A      8.682830   191A      8.853644   192A      8.853653  
     193A      8.886718   194A      8.886725   195A      8.900108  
     196A      8.980411   197A      9.032941   198A      9.223134  
     199A      9.223135   200A      9.388062   201A      9.453615  
     202A      9.591896   203A      9.591952   204A      9.843319  
     205A      9.894197   206A      9.967728   207A      9.967740  
     208A     10.062990   209A     10.062997   210A     10.155535  
     211A     10.517390   212A     10.517392   213A     10.589198  
     214A     10.589218   215A     10.606297   216A     10.606299  
     217A     10.870668   218A     10.870679   219A     11.091469  
     220A     11.184471   221A     11.243732   222A     11.659315  
     223A     11.659328   224A     12.249859   225A     12.249872  
     226A     12.669887   227A     13.587722   228A     13.744235  
     229A     13.744243   230A     14.022144   231A     14.177805  
     232A     14.177814   233A     14.441113   234A     14.459040  
     235A     14.459048   236A     15.902563   237A     18.069788  
     238A     18.069806   239A     25.400430   240A     28.721927  
     241A     41.694680   242A     41.694680   243A     41.838339  
     244A     70.156935   245A     98.281553   246A    318.501502  
     247A    525.661588  

    Final Occupation by Irrep:
              A 
    DOCC [     9 ]
    NA   [     9 ]
    NB   [     9 ]

  @DF-RKS Final Energy:  -460.67744020529847

   => Energetics <=

    Nuclear Repulsion Energy =              6.6967004737335794
    One-Electron Energy =                -649.3459337861986569
    Two-Electron Energy =                 203.4311169877301495
    DFT Exchange-Correlation Energy =     -21.4593238805635416
    Empirical Dispersion Energy =           0.0000000000000000
    VV10 Nonlocal Energy =                  0.0000000000000000
    Total Energy =                       -460.6774402052984669

Computation Completed


Properties will be evaluated at   0.000000,   0.000000,   0.000000 [a0]

Properties computed using the SCF density matrix


 Multipole Moments:

 ------------------------------------------------------------------------------------
     Multipole            Electronic (a.u.)      Nuclear  (a.u.)        Total (a.u.)
 ------------------------------------------------------------------------------------

 L = 1.  Multiply by 2.5417464519 to convert [e a0] to [Debye]
 Dipole X            :          0.0000048           -0.0000065           -0.0000016
 Dipole Y            :        -42.4059166           41.9262021           -0.4797145
 Dipole Z            :         -0.0000000            0.0000000           -0.0000000
 Magnitude           :                                                    0.4797145

 ------------------------------------------------------------------------------------

*** tstop() called on cmpsrv002 at Thu Sep 19 14:23:15 2024
Module time:
	user time   =      14.68 seconds =       0.24 minutes
	system time =       1.02 seconds =       0.02 minutes
	total time  =         94 seconds =       1.57 minutes
Total time:
	user time   =      49.52 seconds =       0.83 minutes
	system time =       3.83 seconds =       0.06 minutes
	total time  =        432 seconds =       7.20 minutes
   => Libint2 <=

    Primary   basis highest AM E, G, H:  6, 6, 3
    Auxiliary basis highest AM E, G, H:  7, 7, 4
    Onebody   basis highest AM E, G, H:  -, -, -
    Solid Harmonics ordering:            Gaussian

*** tstart() called on cmpsrv002
*** at Thu Sep 19 14:23:15 2024

   => Loading Basis Set <=

    Name: THIS_BASIS
    Role: ORBITAL
    Keyword: BASIS
    atoms 1, 4-6 entry H          line    15 file /home/vance/anaconda3/envs/p4env/share/psi4/basis/def2-qzvp.gbs 
    atoms 2      entry CL         line   809 file /home/vance/anaconda3/envs/p4env/share/psi4/basis/def2-qzvp.gbs 
    atoms 3      entry N          line   242 file /home/vance/anaconda3/envs/p4env/share/psi4/basis/def2-qzvp.gbs 


         ---------------------------------------------------------
                          SAPT(DFT): DFT Monomer B                 
         ---------------------------------------------------------
                                   SCF
               by Justin Turney, Rob Parrish, Andy Simmonett
                          and Daniel G. A. Smith
                              RKS Reference
                        4 Threads,   7629 MiB Core
         ---------------------------------------------------------

  ==> Geometry <==

    Molecular point group: c1
    Full point group: Cs

    Geometry (in Angstrom), charge = 0, multiplicity = 1:

       Center              X                  Y                   Z               Mass       
    ------------   -----------------  -----------------  -----------------  -----------------
      Gh(H)          -0.000000190144    -0.036142183656     0.000000000000     1.007825032230
      Gh(CL)         -0.000000190144     1.307207816344     0.000000000000    34.968852682000
         N           -0.000000190144    -2.618832183656     0.000000000000    14.003074004430
         H           -0.473180190144    -2.977842183656     0.819580000000     1.007825032230
         H           -0.473180190144    -2.977842183656    -0.819580000000     1.007825032230
         H            0.946369809856    -2.977842183656     0.000000000000     1.007825032230

  Running in c1 symmetry.

  Rotational constants: A =      6.22544  B =      0.09164  C =      0.09164 [cm^-1]
  Rotational constants: A = 186633.95025  B =   2747.25844  C =   2747.25832 [MHz]
  Nuclear repulsion =   11.947542838505761

  Charge       = 0
  Multiplicity = 1
  Electrons    = 10
  Nalpha       = 5
  Nbeta        = 5

  ==> Algorithm <==

  SCF Algorithm Type is DF.
  DIIS enabled.
  MOM disabled.
  Fractional occupation disabled.
  Guess Type is SAD.
  Energy threshold   = 1.00e-08
  Density threshold  = 1.00e-08
  Integral threshold = 1.00e-12

  ==> Primary Basis <==

  Basis Set: THIS_BASIS
    Blend: DEF2-QZVP
    Number of shells: 79
    Number of basis functions: 247
    Number of Cartesian functions: 298
    Spherical Harmonics?: true
    Max angular momentum: 4

  ==> DFT Potential <==

   => LibXC <=

    Version 6.2.2
    S. Lehtola, C. Steigemann, M. J.T. Oliveira, and M. A.L. Marques.,  SoftwareX 7, 15 (2018) (10.1016/j.softx.2017.11.002)

   => Composite Functional: PBE0 <= 

    PBE0 Hyb-GGA Exchange-Correlation Functional

    C. Adamo and V. Barone.,  J. Chem. Phys. 110, 6158 (1999) (10.1063/1.478522)
    M. Ernzerhof and G. E. Scuseria.,  J. Chem. Phys. 110, 5029 (1999) (10.1063/1.478401)

    Deriv               =              1
    GGA                 =           TRUE
    Meta                =          FALSE

    Exchange Hybrid     =           TRUE
    MP2 Hybrid          =          FALSE

   => Exchange Functionals <=

    0.7500   Perdew, Burke & Ernzerhof

   => Exact (HF) Exchange <=

    0.2500               HF 

   => Correlation Functionals <=

    1.0000   Perdew, Burke & Ernzerhof

   => LibXC Density Thresholds  <==

    XC_HYB_GGA_XC_PBEH:  1.00E-15 

   => Asymptotic Correction <=

    X Functional        =    XC_GGA_X_LB
    C Functional        =   XC_LDA_C_VWN
    Bulk Shift          =       0.113162
    GRAC Alpha          =       0.500000
    GRAC Beta           =      40.000000

   => Molecular Quadrature <=

    Radial Scheme          =       TREUTLER
    Pruning Scheme         =           NONE
    Nuclear Scheme         =       TREUTLER

    Blocking Scheme        =         OCTREE
    BS radius alpha        =              1
    Pruning alpha          =              1
    Radial Points          =             75
    Spherical Points       =            302
    Total Points           =         130933
    Total Blocks           =           1044
    Max Points             =            256
    Max Functions          =            232
    Weights Tolerance      =       1.00E-15

   => Loading Basis Set <=

    Name: (THIS_BASIS AUX)
    Role: JKFIT
    Keyword: DF_BASIS_SCF
    atoms 1, 4-6 entry H          line    18 file /home/vance/anaconda3/envs/p4env/share/psi4/basis/def2-universal-jkfit.gbs 
    atoms 2      entry CL         line   986 file /home/vance/anaconda3/envs/p4env/share/psi4/basis/def2-universal-jkfit.gbs 
    atoms 3      entry N          line   258 file /home/vance/anaconda3/envs/p4env/share/psi4/basis/def2-universal-jkfit.gbs 

  ==> Integral Setup <==

  ==> DiskDFJK: Density-Fitted J/K Matrices <==

    J tasked:                  Yes
    K tasked:                  Yes
    wK tasked:                  No
    OpenMP threads:              4
    Integrals threads:           4
    Memory [MiB]:             5062
    Algorithm:                Core
    Integral Cache:           SAVE
    Schwarz Cutoff:          1E-12
    Fitting Condition:       1E-10

   => Auxiliary Basis Set <=

  Basis Set: (THIS_BASIS AUX)
    Blend: DEF2-UNIVERSAL-JKFIT
    Number of shells: 87
    Number of basis functions: 277
    Number of Cartesian functions: 328
    Spherical Harmonics?: true
    Max angular momentum: 4

  Cached 100.0% of DFT collocation blocks in 0.644 [GiB].

  Minimum eigenvalue in the overlap matrix is 1.5041429506E-04.
  Reciprocal condition number of the overlap matrix is 1.8774898398E-05.
    Using symmetric orthogonalization.

  ==> Pre-Iterations <==

  SCF Guess: Superposition of Atomic Densities via on-the-fly atomic UHF (no occupation information).

   -------------------------
    Irrep   Nso     Nmo    
   -------------------------
     A        247     247 
   -------------------------
    Total     247     247
   -------------------------

  ==> Iterations <==

                           Total Energy        Delta E     RMS |[F,P]|

   @DF-RKS iter SAD:   -56.06961083590795   -5.60696e+01   0.00000e+00 
   @DF-RKS iter   1:   -56.28028815071787   -2.10677e-01   3.14607e-03 ADIIS/DIIS
   @DF-RKS iter   2:   -56.02541940300268    2.54869e-01   4.10995e-03 DIIS/ADIIS
   @DF-RKS iter   3:   -56.51877912401376   -4.93360e-01   2.15297e-04 ADIIS/DIIS
   @DF-RKS iter   4:   -56.52018940696928   -1.41028e-03   1.91635e-05 DIIS
   @DF-RKS iter   5:   -56.52019671341723   -7.30645e-06   5.01759e-06 DIIS
   @DF-RKS iter   6:   -56.52019677894778   -6.55304e-08   1.90546e-07 DIIS
   @DF-RKS iter   7:   -56.52019674558991    3.33578e-08   2.56508e-08 DIIS
   @DF-RKS iter   8:   -56.52019673730453    8.28538e-09   2.73764e-09 DIIS
  Energy and wave function converged.


  ==> Post-Iterations <==

   Electrons on quadrature grid:
      Ntotal   =    9.9999993001 ; deviation = -6.999e-07 

    Orbital Energies [Eh]
    ---------------------

    Doubly Occupied:                                                      

       1A    -14.471685     2A     -0.987676     3A     -0.590245  
       4A     -0.590243     5A     -0.392445  

    Virtual:                                                              

       6A     -0.084613     7A     -0.015369     8A     -0.015369  
       9A      0.007356    10A      0.090959    11A      0.090962  
      12A      0.099595    13A      0.141340    14A      0.143649  
      15A      0.143651    16A      0.246100    17A      0.272215  
      18A      0.272217    19A      0.275344    20A      0.308701  
      21A      0.308703    22A      0.331882    23A      0.479945  
      24A      0.566563    25A      0.566563    26A      0.615362  
      27A      0.629371    28A      0.644986    29A      0.644987  
      30A      0.678452    31A      0.678524    32A      0.722667  
      33A      0.722669    34A      0.732312    35A      0.743942  
      36A      0.743945    37A      0.761496    38A      0.820203  
      39A      0.820207    40A      0.870845    41A      0.925871  
      42A      0.925871    43A      0.936886    44A      1.014760  
      45A      1.014760    46A      1.065648    47A      1.073185  
      48A      1.096821    49A      1.096821    50A      1.138415  
      51A      1.351641    52A      1.548093    53A      1.548094  
      54A      1.614957    55A      1.678576    56A      1.678733  
      57A      1.718387    58A      1.718388    59A      1.902435  
      60A      1.925519    61A      1.925519    62A      1.965639  
      63A      1.965646    64A      2.014320    65A      2.026877  
      66A      2.026877    67A      2.030313    68A      2.042327  
      69A      2.157830    70A      2.157831    71A      2.168039  
      72A      2.168041    73A      2.227655    74A      2.227657  
      75A      2.291791    76A      2.305646    77A      2.305648  
      78A      2.310260    79A      2.310262    80A      2.344224  
      81A      2.344226    82A      2.392085    83A      2.393998  
      84A      2.394049    85A      2.438791    86A      2.478559  
      87A      2.485265    88A      2.485265    89A      2.565243  
      90A      2.662970    91A      2.703865    92A      2.703866  
      93A      2.740302    94A      2.740302    95A      2.832962  
      96A      2.832975    97A      2.894972    98A      2.901601  
      99A      3.069529   100A      3.119668   101A      3.119669  
     102A      3.150714   103A      3.216171   104A      3.223045  
     105A      3.223045   106A      3.530497   107A      3.543930  
     108A      3.543936   109A      3.776695   110A      3.919158  
     111A      3.941243   112A      3.941258   113A      4.138459  
     114A      4.170903   115A      4.170905   116A      4.446768  
     117A      4.446770   118A      4.474782   119A      4.474786  
     120A      4.581939   121A      4.598135   122A      4.598145  
     123A      4.922264   124A      4.922273   125A      5.178623  
     126A      5.232441   127A      5.232441   128A      5.397799  
     129A      5.397799   130A      5.666100   131A      5.702870  
     132A      5.702883   133A      5.721529   134A      5.721529  
     135A      5.740328   136A      5.740328   137A      5.747220  
     138A      5.747271   139A      5.830028   140A      5.833741  
     141A      5.833747   142A      5.899117   143A      5.902767  
     144A      5.902779   145A      6.072463   146A      6.170159  
     147A      6.257270   148A      6.257291   149A      6.295541  
     150A      6.318266   151A      6.318270   152A      6.440423  
     153A      6.440436   154A      6.449186   155A      6.499218  
     156A      6.499219   157A      6.615534   158A      6.615541  
     159A      6.644897   160A      6.829015   161A      6.834102  
     162A      6.834115   163A      6.946041   164A      6.946071  
     165A      7.046300   166A      7.127906   167A      7.127908  
     168A      7.184687   169A      7.212814   170A      7.212825  
     171A      7.392765   172A      7.478273   173A      7.549968  
     174A      7.549976   175A      7.689001   176A      7.689019  
     177A      7.806575   178A      7.808918   179A      7.808923  
     180A      7.851519   181A      7.900568   182A      7.900571  
     183A      7.949769   184A      7.954616   185A      7.954617  
     186A      8.043215   187A      8.083988   188A      8.167206  
     189A      8.167214   190A      8.169823   191A      8.351482  
     192A      8.373591   193A      8.373595   194A      8.447046  
     195A      8.517215   196A      8.517220   197A      8.664781  
     198A      8.664802   199A      8.836614   200A      8.911839  
     201A      9.004434   202A      9.004451   203A      9.060365  
     204A      9.060366   205A      9.283842   206A      9.283845  
     207A      9.325357   208A      9.325357   209A      9.451025  
     210A      9.574195   211A      9.574204   212A      9.770794  
     213A      9.898559   214A      9.967319   215A      9.967328  
     216A     10.018879   217A     11.007897   218A     11.096590  
     219A     11.096593   220A     11.506357   221A     11.546362  
     222A     11.546369   223A     11.729386   224A     11.729403  
     225A     11.896971   226A     11.963062   227A     14.234912  
     228A     14.234915   229A     15.069508   230A     15.312655  
     231A     21.621130   232A     21.621130   233A     21.645322  
     234A     21.645323   235A     21.737848   236A     21.737848  
     237A     21.858143   238A     22.388546   239A     35.596976  
     240A     38.234235   241A     85.442404   242A    118.101150  
     243A    118.101150   244A    118.137069   245A    197.706339  
     246A    233.922308   247A   1051.642385  

    Final Occupation by Irrep:
              A 
    DOCC [     5 ]
    NA   [     5 ]
    NB   [     5 ]

  @DF-RKS Final Energy:   -56.52019673730453

   => Energetics <=

    Nuclear Repulsion Energy =             11.9475428385057612
    One-Electron Energy =                 -99.6898352638038716
    Two-Electron Energy =                  37.2654240366923588
    DFT Exchange-Correlation Energy =      -6.0433283486987843
    Empirical Dispersion Energy =           0.0000000000000000
    VV10 Nonlocal Energy =                  0.0000000000000000
    Total Energy =                        -56.5201967373045306

Computation Completed


Properties will be evaluated at   0.000000,   0.000000,   0.000000 [a0]

Properties computed using the SCF density matrix


 Multipole Moments:

 ------------------------------------------------------------------------------------
     Multipole            Electronic (a.u.)      Nuclear  (a.u.)        Total (a.u.)
 ------------------------------------------------------------------------------------

 L = 1.  Multiply by 2.5417464519 to convert [e a0] to [Debye]
 Dipole X            :         -0.0000107            0.0000153            0.0000046
 Dipole Y            :         50.9373132          -51.5240477           -0.5867345
 Dipole Z            :         -0.0000000            0.0000000           -0.0000000
 Magnitude           :                                                    0.5867345

 ------------------------------------------------------------------------------------

*** tstop() called on cmpsrv002 at Thu Sep 19 14:24:41 2024
Module time:
	user time   =      15.60 seconds =       0.26 minutes
	system time =       0.65 seconds =       0.01 minutes
	total time  =         86 seconds =       1.43 minutes
Total time:
	user time   =      65.12 seconds =       1.09 minutes
	system time =       4.48 seconds =       0.07 minutes
	total time  =        518 seconds =       8.63 minutes

         ---------------------------------------------------------
               SAPT(DFT): Intermolecular Interaction Segment       

                   by Daniel G. A. Smith and Rob Parrish           
         ---------------------------------------------------------

  ==> Algorithm <==

   SAPT DFT Functional             PBE0
   Monomer A GRAC Shift        0.116251
   Monomer B GRAC Shift        0.113162
   Delta HF                        True
   JK Algorithm                      DF

  ==> Preparing SAPT Data Cache <== 

  ==> DiskDFJK: Density-Fitted J/K Matrices <==

    J tasked:                  Yes
    K tasked:                  Yes
    wK tasked:                  No
    OpenMP threads:              4
    Integrals threads:           4
    Memory [MiB]:             5062
    Algorithm:                Core
    Integral Cache:           SAVE
    Schwarz Cutoff:          1E-12
    Fitting Condition:       1E-10

   => Auxiliary Basis Set <=

  Basis Set: (THIS_BASIS AUX)
    Blend: DEF2-UNIVERSAL-JKFIT
    Number of shells: 87
    Number of basis functions: 277
    Number of Cartesian functions: 328
    Spherical Harmonics?: true
    Max angular momentum: 4


  ==> E10 Electostatics <== 

    Elst10,r                         -7.78035109 [mEh]

  ==> E10 Exchange <== 

    Exch10(S^2)                       3.22726023 [mEh]
    Exch10                            3.23782018 [mEh]

  ==> E20 Induction <== 

   => Uncoupled Induction <= 

    Ind20,u (A<-B)                   -0.68701733 [mEh]
    Ind20,u (A->B)                   -1.38740860 [mEh]
    Ind20,u                          -2.07442593 [mEh]
    Exch-Ind20,u (A<-B)               0.08010875 [mEh]
    Exch-Ind20,u (A->B)               0.69467452 [mEh]
    Exch-Ind20,u                      0.77478327 [mEh]
    Exch-Ind20,u (A<-B) (S^inf)       0.08037423 [mEh]
    Exch-Ind20,u (A->B) (S^inf)       0.70069617 [mEh]
    Exch-Ind20,u (S^inf)              0.78107040 [mEh]

   => Coupled Induction <= 

   ---------------------------------------------------
              SAPT Coupled Induction Solver           
   ---------------------------------------------------
    Maxiter             =          20
    Convergence         =   1.000E-06
   ---------------------------------------------------
     Iter       (A<-B)           (B->A)      Time [s]
   ---------------------------------------------------
    Guess    5.910912e-01     1.777151e-01          0
        1    8.638498e-02     6.532039e-02          1
        2    1.393161e-02     2.138091e-02          2
        3    3.661882e-03     1.727731e-03          3
        4    5.658213e-04     1.517694e-04          4
        5    7.464776e-05     6.475297e-06          6
        6    5.770345e-06     6.374628e-07*         7
        7    2.142717e-07*    6.374628e-07*         7
   ---------------------------------------------------

    Ind20,r (A<-B)                   -0.53455262 [mEh]
    Ind20,r (A->B)                   -1.46377348 [mEh]
    Ind20,r                          -1.99832610 [mEh]
    Exch-Ind20,r (A<-B)               0.08738975 [mEh]
    Exch-Ind20,r (A->B)               0.77478229 [mEh]
    Exch-Ind20,r                      0.86217204 [mEh]
    Exch-Ind20,r (A<-B) (S^inf)       0.08769875 [mEh]
    Exch-Ind20,r (A->B) (S^inf)       0.78154391 [mEh]
    Exch-Ind20,r (S^inf)              0.86924266 [mEh]
   => Loading Basis Set <=

    Name: (THIS_BASIS AUX)
    Role: RIFIT
    Keyword: DF_BASIS_MP2
    atoms 1, 4-6 entry H          line    23 file /home/vance/anaconda3/envs/p4env/share/psi4/basis/def2-qzvp-ri.gbs 
    atoms 2      entry CL         line  1113 file /home/vance/anaconda3/envs/p4env/share/psi4/basis/def2-qzvp-ri.gbs 
    atoms 3      entry N          line   337 file /home/vance/anaconda3/envs/p4env/share/psi4/basis/def2-qzvp-ri.gbs 



  ==> E20 Dispersion (CHF FDDS) <== 

   Legendre Points:          10
   Lambda Shift:          0.300
   Fxc Kernal:             ALDA
   (P|Fxc|Q) Thresh:  1.000e-06
  DFHelper Memory: AOs need 0.229 GiB; user supplied 5.960 GiB. 
  Using in-core AOs.

  ==> DFHelper <==
    NBF:                             247
    NAux:                            532
    Schwarz Cutoff:                1E-12
    Mask sparsity (%):                13
    DFH Avail. Memory [GiB]:       5.960
    OpenMP threads:                    4
    Algorithm:                    DIRECT
    AO Core:                        True
    MO Core:                       False
    Hold Metric:                   False
    Metric Power:                  0.000
    Fitting Condition:             1E-12
    Q Shell Max:                      11


  DFHelper Memory: AOs need 0.261 GiB; user supplied 5.960 GiB. 
  Using in-core AOs.


   => Time Integration <= 

       Omega       Weight       Disp20,u         Disp20   time [s]
   2.269e+01    6.667e-02      1.382e-05      1.265e-05          0
   4.147e+00    1.495e-01      3.415e-04      2.943e-04          0
   1.572e+00    2.191e-01      1.548e-03      1.239e-03          1
   7.589e-01    2.693e-01      3.354e-03      2.495e-03          1
   4.049e-01    2.955e-01      4.195e-03      2.955e-03          2
   2.223e-01    2.955e-01      3.607e-03      2.493e-03          2
   1.186e-01    2.693e-01      2.530e-03      1.745e-03          2
   5.727e-02    2.191e-01      1.596e-03      1.101e-03          2
   2.170e-02    1.495e-01      8.975e-04      6.198e-04          3
   3.966e-03    6.667e-02      3.584e-04      2.475e-04          3

    Disp20,u                         -2.93490378 [mEh]
    Disp20                           -2.10134098 [mEh]

  ==> E20 Dispersion (MP2) <== 


    Disp20 (MP2)                     -2.92669965 [mEh]
    Exch-Disp20,u                     0.36688039 [mEh]
    Scaling Scheme                    FIXED
    Scaling Factor                    0.770
    Est. Exch-Disp20,r                0.28249790 [mEh]

   SAPT(DFT) Results
  ---------------------------------------------------------------------------------------------------------
    Electrostatics                   -7.78035109 [mEh]     -4.88224402 [kcal/mol]    -20.42730896 [kJ/mol]
      Elst1,r                        -7.78035109 [mEh]     -4.88224402 [kcal/mol]    -20.42730896 [kJ/mol]

    Exchange                          3.23782018 [mEh]      2.03176284 [kcal/mol]      8.50089570 [kJ/mol]
      Exch1                           3.23782018 [mEh]      2.03176284 [kcal/mol]      8.50089570 [kJ/mol]
      Exch1(S^2)                      3.22726023 [mEh]      2.02513637 [kcal/mol]      8.47317057 [kJ/mol]

    Induction                        -1.89531847 [mEh]     -1.18933029 [kcal/mol]     -4.97615794 [kJ/mol]
      Ind2,r                         -1.99832610 [mEh]     -1.25396856 [kcal/mol]     -5.24660445 [kJ/mol]
      Exch-Ind2,r                     0.86217204 [mEh]      0.54102112 [kcal/mol]      2.26363237 [kJ/mol]
      Induction (A<-B)               -0.44716287 [mEh]     -0.28059894 [kcal/mol]     -1.17402595 [kJ/mol]
      Induction (A->B)               -0.68899119 [mEh]     -0.43234850 [kcal/mol]     -1.80894612 [kJ/mol]
      delta HF,r (2)                 -0.75916441 [mEh]     -0.47638286 [kcal/mol]     -1.99318587 [kJ/mol]

    Dispersion                       -1.81884308 [mEh]     -1.14134126 [kcal/mol]     -4.77537184 [kJ/mol]
      Disp2,r                        -2.10134098 [mEh]     -1.31861137 [kcal/mol]     -5.51706998 [kJ/mol]
      Disp2,u                        -2.92669965 [mEh]     -1.83653175 [kcal/mol]     -7.68404886 [kJ/mol]
      Est. Exch-Disp2,r               0.28249790 [mEh]      0.17727011 [kcal/mol]      0.74169814 [kJ/mol]
      Exch-Disp2,u                    0.36688039 [mEh]      0.23022092 [kcal/mol]      0.96324434 [kJ/mol]

    Total SAPT(DFT)                  -8.25669245 [mEh]     -5.18115273 [kcal/mol]    -21.67794304 [kJ/mol]
  ---------------------------------------------------------------------------------------------------------

*** tstop() called on cmpsrv002 at Thu Sep 19 15:05:01 2024
Module time:
	user time   =     128.79 seconds =       2.15 minutes
	system time =      18.46 seconds =       0.31 minutes
	total time  =       2506 seconds =      41.77 minutes
Total time:
	user time   =     185.69 seconds =       3.09 minutes
	system time =      22.33 seconds =       0.37 minutes
	total time  =       2933 seconds =      48.88 minutes

    Psi4 stopped on: Thursday, 19 September 2024 03:05PM
    Psi4 wall time for execution: 0:48:52.35

*** Psi4 exiting successfully. Buy a developer a beer!
