
    -----------------------------------------------------------------------
          Psi4: An Open-Source Ab Initio Electronic Structure Package
                               Psi4 1.9.1 release

                         Git: Rev {} zzzzzzz 


    D. G. A. Smith, L. A. Burns, A. C. Simmonett, R. M. Parrish,
    M. C. Schieber, R. Galvelis, P. Kraus, H. Kruse, R. Di Remigio,
    A. Alenaizan, A. M. James, S. Lehtola, J. P. Misiewicz, M. Scheurer,
    R. A. Shaw, J. B. Schriber, Y. Xie, Z. L. Glick, D. A. Sirianni,
    J. S. O'Brien, J. M. Waldrop, A. Kumar, E. G. Hohenstein,
    B. P. Pritchard, B. R. Brooks, H. F. Schaefer III, A. Yu. Sokolov,
    K. Patkowski, A. E. DePrince III, U. Bozkaya, R. A. King,
    F. A. Evangelista, J. M. Turney, T. D. Crawford, C. D. Sherrill,
    J. Chem. Phys. 152(18) 184108 (2020). https://doi.org/10.1063/5.0006002

                            Additional Code Authors
    E. T. Seidl, C. L. Janssen, E. F. Valeev, M. L. Leininger,
    J. F. Gonthier, R. M. Richard, H. R. McAlexander, M. Saitow, X. Wang,
    P. Verma, M. H. Lechner, A. Jiang, S. Behnle, A. G. Heide,
    M. F. Herbst, and D. L. Poole

             Previous Authors, Complete List of Code Contributors,
                       and Citations for Specific Modules
    https://github.com/psi4/psi4/blob/master/codemeta.json
    https://github.com/psi4/psi4/graphs/contributors
    http://psicode.org/psi4manual/master/introduction.html#citing-psifour

    -----------------------------------------------------------------------


    Psi4 started on: Tuesday, 17 September 2024 01:35PM

    Process ID: 597320
    Host:       cmpsrv002
    PSIDATADIR: /home/vance/anaconda3/envs/p4env/share/psi4
    Memory:     500.0 MiB
    Threads:    4
    
  ==> Input File <==

--------------------------------------------------------------------------
#charge=0 charge_a=0 charge_b=0 selection_a=1-2 selection_b=3-6 scaling=1.0 benchmark_Eint=-9.680 benchmark_unit=kcal/mol group=XH-N
set_num_threads(4)
memory 8 GB
basis this_basis {
    assign    aug-cc-pVQZ
}

molecule {
     0 1
    --
     0 1
     H        0.00000       -0.31269        0.00000
    Cl       -0.00000        1.03066        0.00000
    --
     0 1
     N        0.00000       -2.03448        0.00000
     H       -0.47318       -2.39349        0.81958
     H       -0.47318       -2.39349       -0.81958
     H        0.94637       -2.39349        0.00000
}

set {
    scf_type                DF
    freeze_core             true
    sapt_dft_grac_shift_a    0.116251
    sapt_dft_grac_shift_b    0.113162
    sapt_dft_do_hybrid      true
    do_ind_exch_sinf        true
    do_disp_exch_sinf       true
}

nrg = energy('sapt(DFT)')
--------------------------------------------------------------------------
  Threads set to 4 by Python driver.

  Memory set to   7.451 GiB by Python driver.

Scratch directory: /scratch2/vance/psi4/

*** tstart() called on cmpsrv002
*** at Tue Sep 17 13:35:31 2024

  SAPT does not make use of molecular symmetry, further calculations in C1 point group.

         ---------------------------------------------------------
                            SAPT(DFT) Procedure                    

                           by Daniel G. A. Smith                   
         ---------------------------------------------------------

Warning! The default value of SAPT_DFT_EXCH_DISP_SCALE_SCHEME has changed from DISP to FIXED. Please be careful comparing results with earlier versions. 

  ==> Algorithm <==

   SAPT DFT Functional             PBE0
   Monomer A GRAC Shift        0.116251
   Monomer B GRAC Shift        0.113162
   Delta HF                        True
   JK Algorithm                      DF

   Required computations:
     HF  (Dimer)
     HF  (Monomer A)
     HF  (Monomer B)
     DFT (Monomer A)
     DFT (Monomer B)

   => Libint2 <=

    Primary   basis highest AM E, G, H:  6, 6, 3
    Auxiliary basis highest AM E, G, H:  7, 7, 4
    Onebody   basis highest AM E, G, H:  -, -, -
    Solid Harmonics ordering:            Gaussian

*** tstart() called on cmpsrv002
*** at Tue Sep 17 13:35:31 2024

   => Loading Basis Set <=

    Name: THIS_BASIS
    Role: ORBITAL
    Keyword: BASIS
    atoms 1, 4-6 entry H          line    40 file /home/vance/anaconda3/envs/p4env/share/psi4/basis/aug-cc-pvqz.gbs 
    atoms 2      entry CL         line  1222 file /home/vance/anaconda3/envs/p4env/share/psi4/basis/aug-cc-pvqz.gbs 
    atoms 3      entry N          line   363 file /home/vance/anaconda3/envs/p4env/share/psi4/basis/aug-cc-pvqz.gbs 


         ---------------------------------------------------------
                         SAPT(DFT): delta HF Dimer                 
         ---------------------------------------------------------
                                   SCF
               by Justin Turney, Rob Parrish, Andy Simmonett
                          and Daniel G. A. Smith
                              RHF Reference
                        4 Threads,   7629 MiB Core
         ---------------------------------------------------------

  ==> Geometry <==

    Molecular point group: c1
    Full point group: Cs

    Geometry (in Angstrom), charge = 0, multiplicity = 1:

       Center              X                  Y                   Z               Mass       
    ------------   -----------------  -----------------  -----------------  -----------------
         H           -0.000000190144    -0.312694329665     0.000000000000     1.007825032230
         CL          -0.000000190144     1.030655670335     0.000000000000    34.968852682000
         N           -0.000000190144    -2.034484329665     0.000000000000    14.003074004430
         H           -0.473180190144    -2.393494329665     0.819580000000     1.007825032230
         H           -0.473180190144    -2.393494329665    -0.819580000000     1.007825032230
         H            0.946369809856    -2.393494329665     0.000000000000     1.007825032230

  Running in c1 symmetry.

  Rotational constants: A =      6.22544  B =      0.14803  C =      0.14803 [cm^-1]
  Rotational constants: A = 186633.95025  B =   4437.83630  C =   4437.83599 [MHz]
  Nuclear repulsion =   49.631591450062906

  Charge       = 0
  Multiplicity = 1
  Electrons    = 28
  Nalpha       = 14
  Nbeta        = 14

  ==> Algorithm <==

  SCF Algorithm Type is DF.
  DIIS enabled.
  MOM disabled.
  Fractional occupation disabled.
  Guess Type is SAD.
  Energy threshold   = 1.00e-08
  Density threshold  = 1.00e-08
  Integral threshold = 1.00e-12

  ==> Primary Basis <==

  Basis Set: THIS_BASIS
    Blend: AUG-CC-PVQZ
    Number of shells: 98
    Number of basis functions: 348
    Number of Cartesian functions: 434
    Spherical Harmonics?: true
    Max angular momentum: 4

   => Loading Basis Set <=

    Name: (THIS_BASIS AUX)
    Role: JKFIT
    Keyword: DF_BASIS_SCF
    atoms 1, 4-6 entry H          line    70 file /home/vance/anaconda3/envs/p4env/share/psi4/basis/aug-cc-pvqz-jkfit.gbs 
    atoms 2      entry CL         line   904 file /home/vance/anaconda3/envs/p4env/share/psi4/basis/aug-cc-pvqz-jkfit.gbs 
    atoms 3      entry N          line   248 file /home/vance/anaconda3/envs/p4env/share/psi4/basis/aug-cc-pvqz-jkfit.gbs 

  ==> Integral Setup <==

  ==> DiskDFJK: Density-Fitted J/K Matrices <==

    J tasked:                  Yes
    K tasked:                  Yes
    wK tasked:                  No
    OpenMP threads:              4
    Integrals threads:           4
    Memory [MiB]:             5722
    Algorithm:                Core
    Integral Cache:           SAVE
    Schwarz Cutoff:          1E-12
    Fitting Condition:       1E-10

   => Auxiliary Basis Set <=

  Basis Set: (THIS_BASIS AUX)
    Blend: AUG-CC-PVQZ-JKFIT
    Number of shells: 152
    Number of basis functions: 630
    Number of Cartesian functions: 849
    Spherical Harmonics?: true
    Max angular momentum: 5

  Minimum eigenvalue in the overlap matrix is 1.0951420811E-05.
  Reciprocal condition number of the overlap matrix is 9.2087033648E-07.
    Using symmetric orthogonalization.

  ==> Pre-Iterations <==

  SCF Guess: Superposition of Atomic Densities via on-the-fly atomic UHF (no occupation information).

   -------------------------
    Irrep   Nso     Nmo    
   -------------------------
     A        348     348 
   -------------------------
    Total     348     348
   -------------------------

  ==> Iterations <==

                           Total Energy        Delta E     RMS |[F,P]|

   @DF-RHF iter SAD:  -515.68962329344015   -5.15690e+02   0.00000e+00 
   @DF-RHF iter   1:  -516.24754599924859   -5.57923e-01   1.29173e-03 DIIS/ADIIS
   @DF-RHF iter   2:  -516.32112034016222   -7.35743e-02   6.52858e-04 DIIS/ADIIS
   @DF-RHF iter   3:  -516.34050441787144   -1.93841e-02   9.37611e-05 DIIS
   @DF-RHF iter   4:  -516.34144102627658   -9.36608e-04   3.34539e-05 DIIS
   @DF-RHF iter   5:  -516.34153563541940   -9.46091e-05   7.70423e-06 DIIS
   @DF-RHF iter   6:  -516.34154594442180   -1.03090e-05   1.72464e-06 DIIS
   @DF-RHF iter   7:  -516.34154656132102   -6.16899e-07   5.09605e-07 DIIS
   @DF-RHF iter   8:  -516.34154660580600   -4.44850e-08   1.22124e-07 DIIS
   @DF-RHF iter   9:  -516.34154660786169   -2.05569e-09   2.39087e-08 DIIS
   @DF-RHF iter  10:  -516.34154660795571   -9.40190e-11   4.65153e-09 DIIS
  Energy and wave function converged.


  ==> Post-Iterations <==

    Orbital Energies [Eh]
    ---------------------

    Doubly Occupied:                                                      

       1A   -104.791065     2A    -15.585821     3A    -10.517512  
       4A     -7.984556     5A     -7.983275     6A     -7.983275  
       7A     -1.191266     8A     -1.057642     9A     -0.677760  
      10A     -0.677758    11A     -0.601504    12A     -0.450405  
      13A     -0.428804    14A     -0.428804  

    Virtual:                                                              

      15A      0.016693    16A      0.037855    17A      0.037855  
      18A      0.051512    19A      0.106945    20A      0.110211  
      21A      0.115034    22A      0.115034    23A      0.127827  
      24A      0.127827    25A      0.140284    26A      0.166363  
      27A      0.166363    28A      0.178588    29A      0.196868  
      30A      0.196868    31A      0.267165    32A      0.270631  
      33A      0.277833    34A      0.287546    35A      0.287546  
      36A      0.307667    37A      0.307667    38A      0.312492  
      39A      0.324586    40A      0.324586    41A      0.332012  
      42A      0.360064    43A      0.360064    44A      0.371548  
      45A      0.384206    46A      0.384206    47A      0.428534  
      48A      0.432745    49A      0.432745    50A      0.459929  
      51A      0.459929    52A      0.464279    53A      0.483172  
      54A      0.538087    55A      0.538087    56A      0.601586  
      57A      0.601586    58A      0.620540    59A      0.663631  
      60A      0.673085    61A      0.673085    62A      0.677469  
      63A      0.690863    64A      0.690863    65A      0.717720  
      66A      0.719274    67A      0.719274    68A      0.719549  
      69A      0.753925    70A      0.755817    71A      0.755818  
      72A      0.774811    73A      0.774812    74A      0.788525  
      75A      0.805845    76A      0.805845    77A      0.845250  
      78A      0.863994    79A      0.873793    80A      0.873794  
      81A      0.920120    82A      0.926954    83A      0.926954  
      84A      0.937659    85A      0.937660    86A      0.970254  
      87A      0.976667    88A      0.976667    89A      0.988616  
      90A      1.052464    91A      1.052464    92A      1.088144  
      93A      1.088144    94A      1.090098    95A      1.171542  
      96A      1.248219    97A      1.264555    98A      1.264555  
      99A      1.301845   100A      1.301845   101A      1.339194  
     102A      1.341069   103A      1.380153   104A      1.380154  
     105A      1.405214   106A      1.418813   107A      1.418814  
     108A      1.420413   109A      1.459341   110A      1.538752  
     111A      1.538754   112A      1.547758   113A      1.547759  
     114A      1.561798   115A      1.643185   116A      1.643185  
     117A      1.690475   118A      1.692180   119A      1.692180  
     120A      1.706736   121A      1.741685   122A      1.764102  
     123A      1.782831   124A      1.782831   125A      1.805509  
     126A      1.805510   127A      1.822998   128A      1.822998  
     129A      1.880285   130A      1.888351   131A      1.888352  
     132A      1.903618   133A      1.903618   134A      1.919335  
     135A      1.938601   136A      1.961338   137A      1.961339  
     138A      2.029426   139A      2.032598   140A      2.032599  
     141A      2.046010   142A      2.067241   143A      2.072412  
     144A      2.072412   145A      2.081232   146A      2.081232  
     147A      2.100337   148A      2.105708   149A      2.146509  
     150A      2.156496   151A      2.156497   152A      2.210234  
     153A      2.225241   154A      2.232488   155A      2.232489  
     156A      2.270549   157A      2.270549   158A      2.368823  
     159A      2.370944   160A      2.370945   161A      2.407387  
     162A      2.407388   163A      2.415617   164A      2.436800  
     165A      2.519678   166A      2.547820   167A      2.547821  
     168A      2.599516   169A      2.599518   170A      2.665398  
     171A      2.675781   172A      2.675784   173A      2.788911  
     174A      2.807626   175A      2.807626   176A      2.894850  
     177A      2.915187   178A      2.915188   179A      2.944022  
     180A      3.009659   181A      3.010488   182A      3.010490  
     183A      3.061632   184A      3.061634   185A      3.116578  
     186A      3.130123   187A      3.180130   188A      3.180131  
     189A      3.208775   190A      3.214174   191A      3.214176  
     192A      3.261096   193A      3.261097   194A      3.402229  
     195A      3.402229   196A      3.456786   197A      3.552167  
     198A      3.552168   199A      3.622006   200A      3.666276  
     201A      3.680508   202A      3.680941   203A      3.680942  
     204A      3.750492   205A      3.750494   206A      3.903330  
     207A      3.988188   208A      3.988189   209A      4.041734  
     210A      4.116771   211A      4.159962   212A      4.159966  
     213A      4.184373   214A      4.225596   215A      4.225597  
     216A      4.286907   217A      4.286908   218A      4.306902  
     219A      4.422373   220A      4.422374   221A      4.478796  
     222A      4.534495   223A      4.547368   224A      4.547370  
     225A      4.742150   226A      4.743622   227A      4.743622  
     228A      4.758674   229A      4.759893   230A      4.765010  
     231A      4.765010   232A      4.783112   233A      4.783113  
     234A      4.789852   235A      4.791005   236A      4.857712  
     237A      4.857713   238A      4.962569   239A      4.977878  
     240A      4.977879   241A      5.032515   242A      5.032515  
     243A      5.068660   244A      5.099102   245A      5.099102  
     246A      5.206092   247A      5.206093   248A      5.312718  
     249A      5.378842   250A      5.378843   251A      5.434805  
     252A      5.763442   253A      5.763444   254A      5.801671  
     255A      6.092865   256A      6.712664   257A      6.724376  
     258A      6.742290   259A      6.742292   260A      6.842672  
     261A      6.899821   262A      6.899822   263A      6.982782  
     264A      6.982784   265A      7.200984   266A      7.200985  
     267A      7.330481   268A      7.345101   269A      7.401102  
     270A      7.401106   271A      7.450907   272A      7.577542  
     273A      7.577544   274A      7.659017   275A      7.674701  
     276A      7.846139   277A      7.846149   278A      7.907022  
     279A      7.907026   280A      8.034196   281A      8.138079  
     282A      8.138080   283A      8.182702   284A      8.182708  
     285A      8.296219   286A      8.370475   287A      8.413142  
     288A      8.413144   289A      8.557315   290A      8.557319  
     291A      8.580702   292A      8.721318   293A      8.741672  
     294A      8.741673   295A      8.781933   296A      8.781941  
     297A      8.876239   298A      8.876240   299A      8.944071  
     300A      8.947053   301A      8.971669   302A      8.971675  
     303A      9.018409   304A      9.043943   305A      9.142681  
     306A      9.142685   307A      9.319628   308A      9.382524  
     309A      9.382529   310A      9.473365   311A      9.473367  
     312A      9.593603   313A      9.686606   314A      9.686608  
     315A      9.708667   316A      9.731252   317A      9.731254  
     318A      9.929301   319A      9.929309   320A      9.954790  
     321A     10.121165   322A     10.121168   323A     10.214434  
     324A     10.304750   325A     10.490415   326A     10.490415  
     327A     10.535215   328A     10.566509   329A     10.566516  
     330A     10.836386   331A     11.013646   332A     11.013650  
     333A     11.121815   334A     11.630721   335A     11.959559  
     336A     12.173928   337A     12.173936   338A     12.326281  
     339A     12.379911   340A     12.379926   341A     13.028685  
     342A     13.136690   343A     13.136700   344A     15.009947  
     345A     15.079125   346A     15.079137   347A     26.585955  
     348A     36.912818  

    Final Occupation by Irrep:
              A 
    DOCC [    14 ]
    NA   [    14 ]
    NB   [    14 ]

  @DF-RHF Final Energy:  -516.34154660795571

   => Energetics <=

    Nuclear Repulsion Energy =             49.6315914500629063
    One-Electron Energy =                -811.2273806593760810
    Two-Electron Energy =                 245.2542426013573618
    Total Energy =                       -516.3415466079557063

Computation Completed


Properties will be evaluated at   0.000000,   0.000000,   0.000000 [a0]

Properties computed using the SCF density matrix


 Multipole Moments:

 ------------------------------------------------------------------------------------
     Multipole            Electronic (a.u.)      Nuclear  (a.u.)        Total (a.u.)
 ------------------------------------------------------------------------------------

 L = 1.  Multiply by 2.5417464519 to convert [e a0] to [Debye]
 Dipole X            :         -0.0000058            0.0000088            0.0000031
 Dipole Y            :          6.1257581           -7.9622122           -1.8364541
 Dipole Z            :          0.0000000            0.0000000            0.0000000
 Magnitude           :                                                    1.8364541

 ------------------------------------------------------------------------------------

*** tstop() called on cmpsrv002 at Tue Sep 17 13:35:37 2024
Module time:
	user time   =      20.73 seconds =       0.35 minutes
	system time =       1.86 seconds =       0.03 minutes
	total time  =          6 seconds =       0.10 minutes
Total time:
	user time   =      20.73 seconds =       0.35 minutes
	system time =       1.86 seconds =       0.03 minutes
	total time  =          6 seconds =       0.10 minutes
   => Libint2 <=

    Primary   basis highest AM E, G, H:  6, 6, 3
    Auxiliary basis highest AM E, G, H:  7, 7, 4
    Onebody   basis highest AM E, G, H:  -, -, -
    Solid Harmonics ordering:            Gaussian

*** tstart() called on cmpsrv002
*** at Tue Sep 17 13:35:37 2024

   => Loading Basis Set <=

    Name: THIS_BASIS
    Role: ORBITAL
    Keyword: BASIS
    atoms 1, 4-6 entry H          line    40 file /home/vance/anaconda3/envs/p4env/share/psi4/basis/aug-cc-pvqz.gbs 
    atoms 2      entry CL         line  1222 file /home/vance/anaconda3/envs/p4env/share/psi4/basis/aug-cc-pvqz.gbs 
    atoms 3      entry N          line   363 file /home/vance/anaconda3/envs/p4env/share/psi4/basis/aug-cc-pvqz.gbs 


         ---------------------------------------------------------
                       SAPT(DFT): delta HF Monomer A               
         ---------------------------------------------------------
                                   SCF
               by Justin Turney, Rob Parrish, Andy Simmonett
                          and Daniel G. A. Smith
                              RHF Reference
                        4 Threads,   7629 MiB Core
         ---------------------------------------------------------

  ==> Geometry <==

    Molecular point group: c1
    Full point group: Cs

    Geometry (in Angstrom), charge = 0, multiplicity = 1:

       Center              X                  Y                   Z               Mass       
    ------------   -----------------  -----------------  -----------------  -----------------
         H           -0.000000190144    -0.312694329665     0.000000000000     1.007825032230
         CL          -0.000000190144     1.030655670335     0.000000000000    34.968852682000
      Gh(N)          -0.000000190144    -2.034484329665     0.000000000000    14.003074004430
      Gh(H)          -0.473180190144    -2.393494329665     0.819580000000     1.007825032230
      Gh(H)          -0.473180190144    -2.393494329665    -0.819580000000     1.007825032230
      Gh(H)           0.946369809856    -2.393494329665     0.000000000000     1.007825032230

  Running in c1 symmetry.

  Rotational constants: A =      6.22544  B =      0.14803  C =      0.14803 [cm^-1]
  Rotational constants: A = 186633.95025  B =   4437.83630  C =   4437.83599 [MHz]
  Nuclear repulsion =    6.696700473733577

  Charge       = 0
  Multiplicity = 1
  Electrons    = 18
  Nalpha       = 9
  Nbeta        = 9

  ==> Algorithm <==

  SCF Algorithm Type is DF.
  DIIS enabled.
  MOM disabled.
  Fractional occupation disabled.
  Guess Type is SAD.
  Energy threshold   = 1.00e-08
  Density threshold  = 1.00e-08
  Integral threshold = 1.00e-12

  ==> Primary Basis <==

  Basis Set: THIS_BASIS
    Blend: AUG-CC-PVQZ
    Number of shells: 98
    Number of basis functions: 348
    Number of Cartesian functions: 434
    Spherical Harmonics?: true
    Max angular momentum: 4

   => Loading Basis Set <=

    Name: (THIS_BASIS AUX)
    Role: JKFIT
    Keyword: DF_BASIS_SCF
    atoms 1, 4-6 entry H          line    70 file /home/vance/anaconda3/envs/p4env/share/psi4/basis/aug-cc-pvqz-jkfit.gbs 
    atoms 2      entry CL         line   904 file /home/vance/anaconda3/envs/p4env/share/psi4/basis/aug-cc-pvqz-jkfit.gbs 
    atoms 3      entry N          line   248 file /home/vance/anaconda3/envs/p4env/share/psi4/basis/aug-cc-pvqz-jkfit.gbs 

  ==> Integral Setup <==

  ==> DiskDFJK: Density-Fitted J/K Matrices <==

    J tasked:                  Yes
    K tasked:                  Yes
    wK tasked:                  No
    OpenMP threads:              4
    Integrals threads:           4
    Memory [MiB]:             5722
    Algorithm:                Core
    Integral Cache:           SAVE
    Schwarz Cutoff:          1E-12
    Fitting Condition:       1E-10

   => Auxiliary Basis Set <=

  Basis Set: (THIS_BASIS AUX)
    Blend: AUG-CC-PVQZ-JKFIT
    Number of shells: 152
    Number of basis functions: 630
    Number of Cartesian functions: 849
    Spherical Harmonics?: true
    Max angular momentum: 5

  Minimum eigenvalue in the overlap matrix is 1.0951420811E-05.
  Reciprocal condition number of the overlap matrix is 9.2087033648E-07.
    Using symmetric orthogonalization.

  ==> Pre-Iterations <==

  SCF Guess: Superposition of Atomic Densities via on-the-fly atomic UHF (no occupation information).

   -------------------------
    Irrep   Nso     Nmo    
   -------------------------
     A        348     348 
   -------------------------
    Total     348     348
   -------------------------

  ==> Iterations <==

                           Total Energy        Delta E     RMS |[F,P]|

   @DF-RHF iter SAD:  -459.87084648195616   -4.59871e+02   0.00000e+00 
   @DF-RHF iter   1:  -460.08497249310147   -2.14126e-01   5.44967e-04 DIIS/ADIIS
   @DF-RHF iter   2:  -460.10488450146295   -1.99120e-02   2.29929e-04 DIIS/ADIIS
   @DF-RHF iter   3:  -460.10764567493538   -2.76117e-03   4.35673e-05 DIIS
   @DF-RHF iter   4:  -460.10799020517004   -3.44530e-04   1.25107e-05 DIIS
   @DF-RHF iter   5:  -460.10802371600022   -3.35108e-05   1.76327e-06 DIIS
   @DF-RHF iter   6:  -460.10802429585590   -5.79856e-07   3.79549e-07 DIIS
   @DF-RHF iter   7:  -460.10802431031078   -1.44549e-08   8.64224e-08 DIIS
   @DF-RHF iter   8:  -460.10802431147386   -1.16307e-09   1.69088e-08 DIIS
   @DF-RHF iter   9:  -460.10802431151757   -4.37126e-11   1.75999e-09 DIIS
  Energy and wave function converged.


  ==> Post-Iterations <==

    Orbital Energies [Eh]
    ---------------------

    Doubly Occupied:                                                      

       1A   -104.852116     2A    -10.576161     3A     -8.043296  
       4A     -8.041577     5A     -8.041577     6A     -1.105214  
       7A     -0.610904     8A     -0.475370     9A     -0.475370  

    Virtual:                                                              

      10A      0.018806    11A      0.042140    12A      0.042140  
      13A      0.044318    14A      0.084587    15A      0.100146  
      16A      0.105903    17A      0.105903    18A      0.123235  
      19A      0.123235    20A      0.128709    21A      0.164117  
      22A      0.184166    23A      0.184166    24A      0.194310  
      25A      0.212830    26A      0.212830    27A      0.273104  
      28A      0.273162    29A      0.273162    30A      0.281915  
      31A      0.284055    32A      0.285873    33A      0.285873  
      34A      0.308616    35A      0.317089    36A      0.317089  
      37A      0.357474    38A      0.357474    39A      0.363832  
      40A      0.403632    41A      0.403632    42A      0.417105  
      43A      0.451300    44A      0.451300    45A      0.462828  
      46A      0.473017    47A      0.490570    48A      0.490570  
      49A      0.546145    50A      0.605403    51A      0.605403  
      52A      0.625921    53A      0.625921    54A      0.635379  
      55A      0.635379    56A      0.640947    57A      0.651316  
      58A      0.658466    59A      0.658466    60A      0.664021  
      61A      0.664022    62A      0.712616    63A      0.724047  
      64A      0.736063    65A      0.772703    66A      0.772703  
      67A      0.799208    68A      0.802025    69A      0.802025  
      70A      0.823627    71A      0.840730    72A      0.856157  
      73A      0.856158    74A      0.903373    75A      0.903374  
      76A      0.908811    77A      0.939238    78A      0.943108  
      79A      0.943108    80A      0.967918    81A      0.967919  
      82A      0.992213    83A      1.031942    84A      1.031942  
      85A      1.078476    86A      1.095015    87A      1.099518  
      88A      1.099519    89A      1.127473    90A      1.127473  
      91A      1.165642    92A      1.250324    93A      1.250435  
      94A      1.250435    95A      1.290836    96A      1.303293  
      97A      1.303293    98A      1.361595    99A      1.361596  
     100A      1.414167   101A      1.439515   102A      1.439516  
     103A      1.462900   104A      1.518446   105A      1.530789  
     106A      1.560515   107A      1.560516   108A      1.620460  
     109A      1.620461   110A      1.653055   111A      1.701555  
     112A      1.717179   113A      1.717179   114A      1.724897  
     115A      1.741970   116A      1.781705   117A      1.781705  
     118A      1.797900   119A      1.797901   120A      1.847715  
     121A      1.847715   122A      1.868410   123A      1.868410  
     124A      1.868946   125A      1.886567   126A      1.886567  
     127A      1.907541   128A      1.910232   129A      1.972891  
     130A      1.972891   131A      1.993397   132A      1.993397  
     133A      2.013322   134A      2.035035   135A      2.048101  
     136A      2.048102   137A      2.058565   138A      2.071702  
     139A      2.080353   140A      2.080353   141A      2.085296  
     142A      2.151573   143A      2.151574   144A      2.152469  
     145A      2.188863   146A      2.210870   147A      2.210870  
     148A      2.237013   149A      2.241258   150A      2.241258  
     151A      2.281493   152A      2.308963   153A      2.308965  
     154A      2.309840   155A      2.348139   156A      2.348139  
     157A      2.394257   158A      2.423283   159A      2.423284  
     160A      2.435268   161A      2.435269   162A      2.535040  
     163A      2.540742   164A      2.638811   165A      2.638811  
     166A      2.670556   167A      2.670559   168A      2.712702  
     169A      2.791721   170A      2.824538   171A      2.824538  
     172A      2.918048   173A      3.110117   174A      3.110117  
     175A      3.133335   176A      3.133338   177A      3.197410  
     178A      3.220447   179A      3.251192   180A      3.255344  
     181A      3.255344   182A      3.279131   183A      3.279132  
     184A      3.308928   185A      3.329688   186A      3.329691  
     187A      3.342160   188A      3.412125   189A      3.474185  
     190A      3.474186   191A      3.578783   192A      3.578785  
     193A      3.672150   194A      3.683472   195A      3.683473  
     196A      3.796335   197A      3.816996   198A      3.869669  
     199A      3.869670   200A      3.874166   201A      3.920323  
     202A      3.920325   203A      4.020653   204A      4.020654  
     205A      4.104759   206A      4.222499   207A      4.222500  
     208A      4.259613   209A      4.364310   210A      4.388512  
     211A      4.388513   212A      4.400025   213A      4.400028  
     214A      4.413942   215A      4.437696   216A      4.437696  
     217A      4.514206   218A      4.560541   219A      4.560545  
     220A      4.698294   221A      4.698294   222A      4.712144  
     223A      4.713205   224A      4.717272   225A      4.722085  
     226A      4.722085   227A      4.744837   228A      4.745514  
     229A      4.771926   230A      4.771928   231A      4.856909  
     232A      4.856909   233A      4.906695   234A      5.004595  
     235A      5.033435   236A      5.033435   237A      5.064684  
     238A      5.064685   239A      5.156496   240A      5.463967  
     241A      5.463970   242A      5.561734   243A      5.663025  
     244A      5.663027   245A      5.844995   246A      5.862017  
     247A      5.862021   248A      5.873719   249A      5.961453  
     250A      5.961455   251A      6.373650   252A      6.498775  
     253A      6.580118   254A      6.580120   255A      6.674909  
     256A      6.687486   257A      6.710932   258A      6.710933  
     259A      7.109907   260A      7.156403   261A      7.156404  
     262A      7.170242   263A      7.170243   264A      7.282708  
     265A      7.282711   266A      7.473267   267A      7.617226  
     268A      7.781474   269A      7.816452   270A      7.816453  
     271A      8.184449   272A      8.237540   273A      8.266035  
     274A      8.266036   275A      8.307356   276A      8.307367  
     277A      8.315197   278A      8.315200   279A      8.449050  
     280A      8.514540   281A      8.514542   282A      8.527860  
     283A      8.691198   284A      8.691198   285A      8.733909  
     286A      8.733911   287A      8.848289   288A      8.848289  
     289A      8.883705   290A      9.110596   291A      9.110599  
     292A      9.186022   293A      9.268582   294A      9.283722  
     295A      9.283728   296A      9.419775   297A      9.443311  
     298A      9.443314   299A      9.522813   300A      9.594511  
     301A      9.594722   302A      9.594723   303A      9.611614  
     304A      9.693356   305A      9.693358   306A      9.858683  
     307A     10.110733   308A     10.110737   309A     10.179997  
     310A     10.193047   311A     10.193054   312A     10.467139  
     313A     10.598793   314A     10.598800   315A     10.634689  
     316A     10.765864   317A     10.765869   318A     10.887532  
     319A     10.887535   320A     10.919792   321A     11.131339  
     322A     11.399859   323A     11.399863   324A     11.725781  
     325A     12.079433   326A     12.079441   327A     12.127368  
     328A     12.524645   329A     12.554587   330A     12.554603  
     331A     13.174294   332A     13.174304   333A     13.397670  
     334A     14.018323   335A     14.309717   336A     14.495545  
     337A     14.495555   338A     14.721734   339A     14.721739  
     340A     16.064365   341A     16.064376   342A     16.430642  
     343A     18.460125   344A     20.130990   345A     21.872195  
     346A     21.872234   347A     26.544467   348A     96.608808  

    Final Occupation by Irrep:
              A 
    DOCC [     9 ]
    NA   [     9 ]
    NB   [     9 ]

  @DF-RHF Final Energy:  -460.10802431151757

   => Energetics <=

    Nuclear Repulsion Energy =              6.6967004737335767
    One-Electron Energy =                -649.1662788354041140
    Two-Electron Energy =                 182.3615540501529608
    Total Energy =                       -460.1080243115175676

Computation Completed


Properties will be evaluated at   0.000000,   0.000000,   0.000000 [a0]

Properties computed using the SCF density matrix


 Multipole Moments:

 ------------------------------------------------------------------------------------
     Multipole            Electronic (a.u.)      Nuclear  (a.u.)        Total (a.u.)
 ------------------------------------------------------------------------------------

 L = 1.  Multiply by 2.5417464519 to convert [e a0] to [Debye]
 Dipole X            :          0.0000065           -0.0000065            0.0000000
 Dipole Y            :        -33.0181513           32.5192614           -0.4988898
 Dipole Z            :          0.0000000            0.0000000            0.0000000
 Magnitude           :                                                    0.4988898

 ------------------------------------------------------------------------------------

*** tstop() called on cmpsrv002 at Tue Sep 17 13:35:43 2024
Module time:
	user time   =      18.97 seconds =       0.32 minutes
	system time =       1.84 seconds =       0.03 minutes
	total time  =          6 seconds =       0.10 minutes
Total time:
	user time   =      39.71 seconds =       0.66 minutes
	system time =       3.70 seconds =       0.06 minutes
	total time  =         12 seconds =       0.20 minutes
   => Libint2 <=

    Primary   basis highest AM E, G, H:  6, 6, 3
    Auxiliary basis highest AM E, G, H:  7, 7, 4
    Onebody   basis highest AM E, G, H:  -, -, -
    Solid Harmonics ordering:            Gaussian

*** tstart() called on cmpsrv002
*** at Tue Sep 17 13:35:43 2024

   => Loading Basis Set <=

    Name: THIS_BASIS
    Role: ORBITAL
    Keyword: BASIS
    atoms 1, 4-6 entry H          line    40 file /home/vance/anaconda3/envs/p4env/share/psi4/basis/aug-cc-pvqz.gbs 
    atoms 2      entry CL         line  1222 file /home/vance/anaconda3/envs/p4env/share/psi4/basis/aug-cc-pvqz.gbs 
    atoms 3      entry N          line   363 file /home/vance/anaconda3/envs/p4env/share/psi4/basis/aug-cc-pvqz.gbs 


         ---------------------------------------------------------
                       SAPT(DFT): delta HF Monomer B               
         ---------------------------------------------------------
                                   SCF
               by Justin Turney, Rob Parrish, Andy Simmonett
                          and Daniel G. A. Smith
                              RHF Reference
                        4 Threads,   7629 MiB Core
         ---------------------------------------------------------

  ==> Geometry <==

    Molecular point group: c1
    Full point group: Cs

    Geometry (in Angstrom), charge = 0, multiplicity = 1:

       Center              X                  Y                   Z               Mass       
    ------------   -----------------  -----------------  -----------------  -----------------
      Gh(H)          -0.000000190144    -0.312694329665     0.000000000000     1.007825032230
      Gh(CL)         -0.000000190144     1.030655670335     0.000000000000    34.968852682000
         N           -0.000000190144    -2.034484329665     0.000000000000    14.003074004430
         H           -0.473180190144    -2.393494329665     0.819580000000     1.007825032230
         H           -0.473180190144    -2.393494329665    -0.819580000000     1.007825032230
         H            0.946369809856    -2.393494329665     0.000000000000     1.007825032230

  Running in c1 symmetry.

  Rotational constants: A =      6.22544  B =      0.14803  C =      0.14803 [cm^-1]
  Rotational constants: A = 186633.95025  B =   4437.83630  C =   4437.83599 [MHz]
  Nuclear repulsion =   11.947542838505765

  Charge       = 0
  Multiplicity = 1
  Electrons    = 10
  Nalpha       = 5
  Nbeta        = 5

  ==> Algorithm <==

  SCF Algorithm Type is DF.
  DIIS enabled.
  MOM disabled.
  Fractional occupation disabled.
  Guess Type is SAD.
  Energy threshold   = 1.00e-08
  Density threshold  = 1.00e-08
  Integral threshold = 1.00e-12

  ==> Primary Basis <==

  Basis Set: THIS_BASIS
    Blend: AUG-CC-PVQZ
    Number of shells: 98
    Number of basis functions: 348
    Number of Cartesian functions: 434
    Spherical Harmonics?: true
    Max angular momentum: 4

   => Loading Basis Set <=

    Name: (THIS_BASIS AUX)
    Role: JKFIT
    Keyword: DF_BASIS_SCF
    atoms 1, 4-6 entry H          line    70 file /home/vance/anaconda3/envs/p4env/share/psi4/basis/aug-cc-pvqz-jkfit.gbs 
    atoms 2      entry CL         line   904 file /home/vance/anaconda3/envs/p4env/share/psi4/basis/aug-cc-pvqz-jkfit.gbs 
    atoms 3      entry N          line   248 file /home/vance/anaconda3/envs/p4env/share/psi4/basis/aug-cc-pvqz-jkfit.gbs 

  ==> Integral Setup <==

  ==> DiskDFJK: Density-Fitted J/K Matrices <==

    J tasked:                  Yes
    K tasked:                  Yes
    wK tasked:                  No
    OpenMP threads:              4
    Integrals threads:           4
    Memory [MiB]:             5722
    Algorithm:                Core
    Integral Cache:           SAVE
    Schwarz Cutoff:          1E-12
    Fitting Condition:       1E-10

   => Auxiliary Basis Set <=

  Basis Set: (THIS_BASIS AUX)
    Blend: AUG-CC-PVQZ-JKFIT
    Number of shells: 152
    Number of basis functions: 630
    Number of Cartesian functions: 849
    Spherical Harmonics?: true
    Max angular momentum: 5

  Minimum eigenvalue in the overlap matrix is 1.0951420811E-05.
  Reciprocal condition number of the overlap matrix is 9.2087033648E-07.
    Using symmetric orthogonalization.

  ==> Pre-Iterations <==

  SCF Guess: Superposition of Atomic Densities via on-the-fly atomic UHF (no occupation information).

   -------------------------
    Irrep   Nso     Nmo    
   -------------------------
     A        348     348 
   -------------------------
    Total     348     348
   -------------------------

  ==> Iterations <==

                           Total Energy        Delta E     RMS |[F,P]|

   @DF-RHF iter SAD:   -55.64205534742377   -5.56421e+01   0.00000e+00 
   @DF-RHF iter   1:   -56.12628370620039   -4.84228e-01   1.34285e-03 DIIS/ADIIS
   @DF-RHF iter   2:   -56.19508725770417   -6.88036e-02   7.78528e-04 DIIS/ADIIS
   @DF-RHF iter   3:   -56.22333118008669   -2.82439e-02   7.07512e-05 DIIS
   @DF-RHF iter   4:   -56.22396796337576   -6.36783e-04   1.32171e-05 DIIS
   @DF-RHF iter   5:   -56.22398917205071   -2.12087e-05   2.45554e-06 DIIS
   @DF-RHF iter   6:   -56.22399041323288   -1.24118e-06   6.41752e-07 DIIS
   @DF-RHF iter   7:   -56.22399049822820   -8.49953e-08   1.41606e-07 DIIS
   @DF-RHF iter   8:   -56.22399050256487   -4.33667e-09   2.10240e-08 DIIS
   @DF-RHF iter   9:   -56.22399050266045   -9.55751e-11   5.62616e-09 DIIS
  Energy and wave function converged.


  ==> Post-Iterations <==

    Orbital Energies [Eh]
    ---------------------

    Doubly Occupied:                                                      

       1A    -15.539190     2A     -1.139718     3A     -0.630907  
       4A     -0.630905     5A     -0.425447  

    Virtual:                                                              

       6A      0.025156     7A      0.041977     8A      0.043362  
       9A      0.043362    10A      0.096130    11A      0.096130  
      12A      0.100729    13A      0.117746    14A      0.136322  
      15A      0.138361    16A      0.138361    17A      0.149590  
      18A      0.181758    19A      0.181758    20A      0.212677  
      21A      0.212677    22A      0.271773    23A      0.283124  
      24A      0.290434    25A      0.293140    26A      0.293140  
      27A      0.305823    28A      0.305823    29A      0.321514  
      30A      0.325302    31A      0.325302    32A      0.330949  
      33A      0.353339    34A      0.369205    35A      0.369205  
      36A      0.395073    37A      0.395074    38A      0.403054  
      39A      0.449646    40A      0.449646    41A      0.464192  
      42A      0.473948    43A      0.473948    44A      0.552050  
      45A      0.552050    46A      0.554825    47A      0.563710  
      48A      0.563711    49A      0.614982    50A      0.633239  
      51A      0.698830    52A      0.715220    53A      0.725795  
      54A      0.725795    55A      0.739743    56A      0.741092  
      57A      0.743957    58A      0.743957    59A      0.783490  
      60A      0.791407    61A      0.791409    62A      0.820152  
      63A      0.820152    64A      0.850849    65A      0.850850  
      66A      0.862544    67A      0.882143    68A      0.882143  
      69A      0.882476    70A      0.921263    71A      0.930058  
      72A      0.930058    73A      0.965181    74A      0.965181  
      75A      0.977021    76A      1.018076    77A      1.018076  
      78A      1.031344    79A      1.037057    80A      1.037057  
      81A      1.078243    82A      1.084854    83A      1.084854  
      84A      1.119057    85A      1.119058    86A      1.147558  
      87A      1.176700    88A      1.176700    89A      1.184563  
      90A      1.350427    91A      1.366504    92A      1.366505  
      93A      1.374361    94A      1.398962    95A      1.406586  
      96A      1.406586    97A      1.450746    98A      1.451284  
      99A      1.451285   100A      1.500304   101A      1.505999  
     102A      1.562151   103A      1.562152   104A      1.592423  
     105A      1.625818   106A      1.625819   107A      1.711632  
     108A      1.711632   109A      1.737663   110A      1.748457  
     111A      1.748457   112A      1.752937   113A      1.769638  
     114A      1.785363   115A      1.785364   116A      1.822422  
     117A      1.865405   118A      1.865407   119A      1.915100  
     120A      1.915102   121A      1.928537   122A      1.956007  
     123A      1.956007   124A      1.965312   125A      2.003239  
     126A      2.003240   127A      2.023759   128A      2.066129  
     129A      2.081511   130A      2.081511   131A      2.124518  
     132A      2.135606   133A      2.135607   134A      2.195441  
     135A      2.227690   136A      2.227690   137A      2.248179  
     138A      2.248180   139A      2.271351   140A      2.273685  
     141A      2.288290   142A      2.288291   143A      2.357866  
     144A      2.358779   145A      2.373930   146A      2.395926  
     147A      2.395926   148A      2.466686   149A      2.468833  
     150A      2.468834   151A      2.500709   152A      2.516830  
     153A      2.516831   154A      2.545960   155A      2.545961  
     156A      2.563746   157A      2.587539   158A      2.660487  
     159A      2.660488   160A      2.729625   161A      2.768194  
     162A      2.768196   163A      2.908082   164A      2.908083  
     165A      2.934624   166A      2.969530   167A      2.969531  
     168A      2.978907   169A      2.978908   170A      2.992764  
     171A      3.044559   172A      3.080681   173A      3.092815  
     174A      3.092818   175A      3.143271   176A      3.143271  
     177A      3.164563   178A      3.172167   179A      3.278266  
     180A      3.278266   181A      3.314556   182A      3.333111  
     183A      3.333112   184A      3.351758   185A      3.351759  
     186A      3.409911   187A      3.563455   188A      3.563455  
     189A      3.569044   190A      3.569044   191A      3.578526  
     192A      3.647628   193A      3.647628   194A      3.708102  
     195A      3.757165   196A      3.813387   197A      3.813387  
     198A      3.861475   199A      3.996011   200A      3.996011  
     201A      4.122572   202A      4.137769   203A      4.137773  
     204A      4.166463   205A      4.232547   206A      4.284006  
     207A      4.284007   208A      4.298994   209A      4.421803  
     210A      4.421803   211A      4.517529   212A      4.517532  
     213A      4.536661   214A      4.596234   215A      4.775044  
     216A      4.775050   217A      4.858037   218A      4.858038  
     219A      5.023722   220A      5.023723   221A      5.045418  
     222A      5.187327   223A      5.259382   224A      5.259383  
     225A      5.290181   226A      5.434824   227A      5.434824  
     228A      5.448434   229A      5.448434   230A      5.455732  
     231A      5.472286   232A      5.492604   233A      5.599318  
     234A      5.599318   235A      5.772460   236A      6.029007  
     237A      6.029008   238A      6.131324   239A      6.270543  
     240A      6.273224   241A      6.294030   242A      6.294030  
     243A      6.381591   244A      6.381591   245A      6.858063  
     246A      6.877142   247A      6.969744   248A      6.969747  
     249A      7.016618   250A      7.016622   251A      7.042110  
     252A      7.057004   253A      7.374911   254A      7.395737  
     255A      7.448864   256A      7.448867   257A      7.557970  
     258A      7.557970   259A      7.661566   260A      7.661567  
     261A      7.691010   262A      7.701980   263A      7.708954  
     264A      7.708955   265A      7.787542   266A      7.787545  
     267A      7.831117   268A      7.897984   269A      7.897989  
     270A      8.036758   271A      8.036762   272A      8.166666  
     273A      8.177647   274A      8.177647   275A      8.241716  
     276A      8.241719   277A      8.317710   278A      8.431016  
     279A      8.469876   280A      8.469877   281A      8.619802  
     282A      8.664384   283A      8.664390   284A      8.740780  
     285A      8.834003   286A      8.834004   287A      8.900386  
     288A      8.900390   289A      8.937467   290A      8.937468  
     291A      8.988189   292A      8.990386   293A      9.061122  
     294A      9.096251   295A      9.203363   296A      9.244030  
     297A      9.244031   298A      9.341906   299A      9.341907  
     300A      9.383781   301A      9.383785   302A      9.485700  
     303A      9.485703   304A      9.588063   305A      9.747616  
     306A      9.747620   307A      9.752301   308A      9.755845  
     309A      9.898908   310A      9.898912   311A     10.011111  
     312A     10.050342   313A     10.050348   314A     10.134223  
     315A     10.163228   316A     10.163230   317A     10.307635  
     318A     10.307636   319A     10.560820   320A     10.560821  
     321A     10.571362   322A     10.666295   323A     10.666302  
     324A     10.865436   325A     10.883793   326A     11.063368  
     327A     11.063371   328A     11.138410   329A     11.733000  
     330A     12.005257   331A     12.220339   332A     12.220347  
     333A     12.409431   334A     12.433263   335A     12.433278  
     336A     13.072783   337A     13.183568   338A     13.183578  
     339A     13.429932   340A     15.077660   341A     15.124235  
     342A     15.124247   343A     31.123240   344A     31.123240  
     345A     31.411841   346A     36.944674   347A     43.206085  
     348A    160.433734  

    Final Occupation by Irrep:
              A 
    DOCC [     5 ]
    NA   [     5 ]
    NB   [     5 ]

  @DF-RHF Final Energy:   -56.22399050266045

   => Energetics <=

    Nuclear Repulsion Energy =             11.9475428385057647
    One-Electron Energy =                 -99.6107283703963162
    Two-Electron Energy =                  31.4391950292300990
    Total Energy =                        -56.2239905026604490

Computation Completed


Properties will be evaluated at   0.000000,   0.000000,   0.000000 [a0]

Properties computed using the SCF density matrix


 Multipole Moments:

 ------------------------------------------------------------------------------------
     Multipole            Electronic (a.u.)      Nuclear  (a.u.)        Total (a.u.)
 ------------------------------------------------------------------------------------

 L = 1.  Multiply by 2.5417464519 to convert [e a0] to [Debye]
 Dipole X            :         -0.0000127            0.0000153            0.0000026
 Dipole Y            :         39.8750377          -40.4814736           -0.6064360
 Dipole Z            :          0.0000000            0.0000000            0.0000000
 Magnitude           :                                                    0.6064360

 ------------------------------------------------------------------------------------

*** tstop() called on cmpsrv002 at Tue Sep 17 13:36:10 2024
Module time:
	user time   =      32.36 seconds =       0.54 minutes
	system time =       2.51 seconds =       0.04 minutes
	total time  =         27 seconds =       0.45 minutes
Total time:
	user time   =      72.08 seconds =       1.20 minutes
	system time =       6.21 seconds =       0.10 minutes
	total time  =         39 seconds =       0.65 minutes

         ---------------------------------------------------------
                        SAPT(DFT): delta HF Segment                

                   by Daniel G. A. Smith and Rob Parrish           
         ---------------------------------------------------------


  ==> Preparing SAPT Data Cache <== 

  ==> DiskDFJK: Density-Fitted J/K Matrices <==

    J tasked:                  Yes
    K tasked:                  Yes
    wK tasked:                  No
    OpenMP threads:              4
    Integrals threads:           4
    Memory [MiB]:             5722
    Algorithm:                Core
    Integral Cache:           SAVE
    Schwarz Cutoff:          1E-12
    Fitting Condition:       1E-10

   => Auxiliary Basis Set <=

  Basis Set: (THIS_BASIS AUX)
    Blend: AUG-CC-PVQZ-JKFIT
    Number of shells: 152
    Number of basis functions: 630
    Number of Cartesian functions: 849
    Spherical Harmonics?: true
    Max angular momentum: 5


  ==> E10 Electostatics <== 

    Elst10,r                        -34.01693153 [mEh]

  ==> E10 Exchange <== 

    Exch10(S^2)                      43.75095307 [mEh]
    Exch10                           45.23982033 [mEh]

  ==> E20 Induction <== 

   => Uncoupled Induction <= 

    Ind20,u (A<-B)                   -5.83902187 [mEh]
    Ind20,u (A->B)                  -13.21350785 [mEh]
    Ind20,u                         -19.05252972 [mEh]
    Exch-Ind20,u (A<-B)               3.71288632 [mEh]
    Exch-Ind20,u (A->B)               6.97697960 [mEh]
    Exch-Ind20,u                     10.68986592 [mEh]
    Exch-Ind20,u (A<-B) (S^inf)       3.99393522 [mEh]
    Exch-Ind20,u (A->B) (S^inf)       7.60891590 [mEh]
    Exch-Ind20,u (S^inf)             11.60285112 [mEh]

   => Coupled Induction <= 

   ---------------------------------------------------
              SAPT Coupled Induction Solver           
   ---------------------------------------------------
    Maxiter             =          20
    Convergence         =   1.000E-06
   ---------------------------------------------------
     Iter       (A<-B)           (B->A)      Time [s]
   ---------------------------------------------------
    Guess    1.255653e-01     1.644082e-01          2
        1    3.862672e-02     5.160787e-02          5
        2    4.948927e-03     1.463634e-02          8
        3    1.592316e-03     4.047213e-03         11
        4    4.281966e-04     7.945150e-04         14
        5    5.604787e-05     1.320748e-04         18
        6    7.118643e-06     1.968141e-05         20
        7    1.231552e-06     3.359239e-06         23
        8    2.175270e-07*    8.748570e-07*        24
   ---------------------------------------------------

    Ind20,r (A<-B)                   -6.61225529 [mEh]
    Ind20,r (A->B)                  -16.92781383 [mEh]
    Ind20,r                         -23.54006912 [mEh]
    Exch-Ind20,r (A<-B)               4.36538323 [mEh]
    Exch-Ind20,r (A->B)               9.58032406 [mEh]
    Exch-Ind20,r                     13.94570729 [mEh]
    Exch-Ind20,r (A<-B) (S^inf)       4.70262098 [mEh]
    Exch-Ind20,r (A->B) (S^inf)      10.47418805 [mEh]
    Exch-Ind20,r (S^inf)             15.17680903 [mEh]

   Partial SAPT(HF) Results, to compute Delta HF (dHF)
  ---------------------------------------------------------------------------------------------------------
    Electrostatics                  -34.01693153 [mEh]    -21.34594680 [kcal/mol]    -89.31144143 [kJ/mol]
      Elst10,r                      -34.01693153 [mEh]    -21.34594680 [kcal/mol]    -89.31144143 [kJ/mol]

    Exchange                         45.23982033 [mEh]     28.38841585 [kcal/mol]    118.77713191 [kJ/mol]
      Exch10                         45.23982033 [mEh]     28.38841585 [kcal/mol]    118.77713191 [kJ/mol]
      Exch10(S^2)                    43.75095307 [mEh]     27.45413754 [kcal/mol]    114.86811145 [kJ/mol]

    Induction (no dHF)               -9.59436182 [mEh]     -6.02055294 [kcal/mol]    -25.18999350 [kJ/mol]
      Ind20,r                       -23.54006912 [mEh]    -14.77161638 [kcal/mol]    -61.80444295 [kJ/mol]
      Exch-Ind20,r                   13.94570729 [mEh]      8.75106344 [kcal/mol]     36.61444945 [kJ/mol]
      Induction (A<-B) (no dHF)      -2.24687205 [mEh]     -1.40993350 [kcal/mol]     -5.89916176 [kJ/mol]
      Induction (A->B) (no dHF)      -7.34748977 [mEh]     -4.61061944 [kcal/mol]    -19.29083174 [kJ/mol]

    Subtotal SAPT(HF)                 1.62852697 [mEh]      1.02191610 [kcal/mol]      4.27569698 [kJ/mol]
    Total HF                         -9.53179378 [mEh]     -5.98129090 [kcal/mol]    -25.02572112 [kJ/mol]
    Delta HF                        -11.16032075 [mEh]     -7.00320700 [kcal/mol]    -29.30141809 [kJ/mol]
  ---------------------------------------------------------------------------------------------------------
   Partial SAPT(HF) Results, alternate SAPT0-like display
  ---------------------------------------------------------------------------------------------------------
    Induction                       -20.75468257 [mEh]    -13.02375994 [kcal/mol]    -54.49141159 [kJ/mol]
      Ind20,r                       -23.54006912 [mEh]    -14.77161638 [kcal/mol]    -61.80444295 [kJ/mol]
      Exch-Ind20,r                   13.94570729 [mEh]      8.75106344 [kcal/mol]     36.61444945 [kJ/mol]
      delta HF,r (2)                -11.16032075 [mEh]     -7.00320700 [kcal/mol]    -29.30141809 [kJ/mol]
      Induction (A<-B)               -4.86047088 [mEh]     -3.04999152 [kcal/mol]    -12.76116454 [kJ/mol]
      Induction (A->B)              -15.89421169 [mEh]     -9.97376842 [kcal/mol]    -41.73024706 [kJ/mol]
  ---------------------------------------------------------------------------------------------------------
   => Libint2 <=

    Primary   basis highest AM E, G, H:  6, 6, 3
    Auxiliary basis highest AM E, G, H:  7, 7, 4
    Onebody   basis highest AM E, G, H:  -, -, -
    Solid Harmonics ordering:            Gaussian

*** tstart() called on cmpsrv002
*** at Tue Sep 17 13:36:51 2024

   => Loading Basis Set <=

    Name: THIS_BASIS
    Role: ORBITAL
    Keyword: BASIS
    atoms 1, 4-6 entry H          line    40 file /home/vance/anaconda3/envs/p4env/share/psi4/basis/aug-cc-pvqz.gbs 
    atoms 2      entry CL         line  1222 file /home/vance/anaconda3/envs/p4env/share/psi4/basis/aug-cc-pvqz.gbs 
    atoms 3      entry N          line   363 file /home/vance/anaconda3/envs/p4env/share/psi4/basis/aug-cc-pvqz.gbs 


         ---------------------------------------------------------
                          SAPT(DFT): DFT Monomer A                 
         ---------------------------------------------------------
                                   SCF
               by Justin Turney, Rob Parrish, Andy Simmonett
                          and Daniel G. A. Smith
                              RKS Reference
                        4 Threads,   7629 MiB Core
         ---------------------------------------------------------

  ==> Geometry <==

    Molecular point group: c1
    Full point group: Cs

    Geometry (in Angstrom), charge = 0, multiplicity = 1:

       Center              X                  Y                   Z               Mass       
    ------------   -----------------  -----------------  -----------------  -----------------
         H           -0.000000190144    -0.312694329665     0.000000000000     1.007825032230
         CL          -0.000000190144     1.030655670335     0.000000000000    34.968852682000
      Gh(N)          -0.000000190144    -2.034484329665     0.000000000000    14.003074004430
      Gh(H)          -0.473180190144    -2.393494329665     0.819580000000     1.007825032230
      Gh(H)          -0.473180190144    -2.393494329665    -0.819580000000     1.007825032230
      Gh(H)           0.946369809856    -2.393494329665     0.000000000000     1.007825032230

  Running in c1 symmetry.

  Rotational constants: A =      6.22544  B =      0.14803  C =      0.14803 [cm^-1]
  Rotational constants: A = 186633.95025  B =   4437.83630  C =   4437.83599 [MHz]
  Nuclear repulsion =    6.696700473733577

  Charge       = 0
  Multiplicity = 1
  Electrons    = 18
  Nalpha       = 9
  Nbeta        = 9

  ==> Algorithm <==

  SCF Algorithm Type is DF.
  DIIS enabled.
  MOM disabled.
  Fractional occupation disabled.
  Guess Type is SAD.
  Energy threshold   = 1.00e-08
  Density threshold  = 1.00e-08
  Integral threshold = 1.00e-12

  ==> Primary Basis <==

  Basis Set: THIS_BASIS
    Blend: AUG-CC-PVQZ
    Number of shells: 98
    Number of basis functions: 348
    Number of Cartesian functions: 434
    Spherical Harmonics?: true
    Max angular momentum: 4

  ==> DFT Potential <==

   => LibXC <=

    Version 6.2.2
    S. Lehtola, C. Steigemann, M. J.T. Oliveira, and M. A.L. Marques.,  SoftwareX 7, 15 (2018) (10.1016/j.softx.2017.11.002)

   => Composite Functional: PBE0 <= 

    PBE0 Hyb-GGA Exchange-Correlation Functional

    C. Adamo and V. Barone.,  J. Chem. Phys. 110, 6158 (1999) (10.1063/1.478522)
    M. Ernzerhof and G. E. Scuseria.,  J. Chem. Phys. 110, 5029 (1999) (10.1063/1.478401)

    Deriv               =              1
    GGA                 =           TRUE
    Meta                =          FALSE

    Exchange Hybrid     =           TRUE
    MP2 Hybrid          =          FALSE

   => Exchange Functionals <=

    0.7500   Perdew, Burke & Ernzerhof

   => Exact (HF) Exchange <=

    0.2500               HF 

   => Correlation Functionals <=

    1.0000   Perdew, Burke & Ernzerhof

   => LibXC Density Thresholds  <==

    XC_HYB_GGA_XC_PBEH:  1.00E-15 

   => Asymptotic Correction <=

    X Functional        =    XC_GGA_X_LB
    C Functional        =   XC_LDA_C_VWN
    Bulk Shift          =       0.116251
    GRAC Alpha          =       0.500000
    GRAC Beta           =      40.000000

   => Molecular Quadrature <=

    Radial Scheme          =       TREUTLER
    Pruning Scheme         =           NONE
    Nuclear Scheme         =       TREUTLER

    Blocking Scheme        =         OCTREE
    BS radius alpha        =              1
    Pruning alpha          =              1
    Radial Points          =             75
    Spherical Points       =            302
    Total Points           =         131862
    Total Blocks           =           1050
    Max Points             =            256
    Max Functions          =            348
    Weights Tolerance      =       1.00E-15

   => Loading Basis Set <=

    Name: (THIS_BASIS AUX)
    Role: JKFIT
    Keyword: DF_BASIS_SCF
    atoms 1, 4-6 entry H          line    70 file /home/vance/anaconda3/envs/p4env/share/psi4/basis/aug-cc-pvqz-jkfit.gbs 
    atoms 2      entry CL         line   904 file /home/vance/anaconda3/envs/p4env/share/psi4/basis/aug-cc-pvqz-jkfit.gbs 
    atoms 3      entry N          line   248 file /home/vance/anaconda3/envs/p4env/share/psi4/basis/aug-cc-pvqz-jkfit.gbs 

  ==> Integral Setup <==

  ==> DiskDFJK: Density-Fitted J/K Matrices <==

    J tasked:                  Yes
    K tasked:                  Yes
    wK tasked:                  No
    OpenMP threads:              4
    Integrals threads:           4
    Memory [MiB]:             4554
    Algorithm:                Core
    Integral Cache:           SAVE
    Schwarz Cutoff:          1E-12
    Fitting Condition:       1E-10

   => Auxiliary Basis Set <=

  Basis Set: (THIS_BASIS AUX)
    Blend: AUG-CC-PVQZ-JKFIT
    Number of shells: 152
    Number of basis functions: 630
    Number of Cartesian functions: 849
    Spherical Harmonics?: true
    Max angular momentum: 5

  Cached 100.0% of DFT collocation blocks in 1.141 [GiB].

  Minimum eigenvalue in the overlap matrix is 1.0951420811E-05.
  Reciprocal condition number of the overlap matrix is 9.2087033648E-07.
    Using symmetric orthogonalization.

  ==> Pre-Iterations <==

  SCF Guess: Superposition of Atomic Densities via on-the-fly atomic UHF (no occupation information).

   -------------------------
    Irrep   Nso     Nmo    
   -------------------------
     A        348     348 
   -------------------------
    Total     348     348
   -------------------------

  ==> Iterations <==

                           Total Energy        Delta E     RMS |[F,P]|

   @DF-RKS iter SAD:  -460.52671663673459   -4.60527e+02   0.00000e+00 
   @DF-RKS iter   1:  -460.65070658997462   -1.23990e-01   7.18726e-04 DIIS/ADIIS
   @DF-RKS iter   2:  -460.65476202764512   -4.05544e-03   6.34108e-04 DIIS/ADIIS
   @DF-RKS iter   3:  -460.67484241487853   -2.00804e-02   5.19782e-05 DIIS
   @DF-RKS iter   4:  -460.67502338978778   -1.80975e-04   8.04445e-06 DIIS
   @DF-RKS iter   5:  -460.67502860854796   -5.21876e-06   1.21674e-06 DIIS
   @DF-RKS iter   6:  -460.67502828190504    3.26643e-07   4.35585e-08 DIIS
   @DF-RKS iter   7:  -460.67502828906345   -7.15841e-09   3.08714e-09 DIIS
  Energy and wave function converged.


  ==> Post-Iterations <==

   Electrons on quadrature grid:
      Ntotal   =   17.9999992755 ; deviation = -7.245e-07 

    Orbital Energies [Eh]
    ---------------------

    Doubly Occupied:                                                      

       1A   -101.863026     2A     -9.665175     3A     -7.400764  
       4A     -7.392306     5A     -7.392305     6A     -0.976115  
       7A     -0.595516     8A     -0.463152     9A     -0.463152  

    Virtual:                                                              

      10A     -0.133264    11A     -0.063625    12A     -0.046959  
      13A     -0.041513    14A     -0.041506    15A     -0.007571  
      16A     -0.005047    17A     -0.005026    18A      0.021059  
      19A      0.021126    20A      0.036090    21A      0.045056  
      22A      0.057440    23A      0.057447    24A      0.072842  
      25A      0.095785    26A      0.095800    27A      0.118770  
      28A      0.118778    29A      0.142978    30A      0.163038  
      31A      0.163069    32A      0.180125    33A      0.185203  
      34A      0.185252    35A      0.198567    36A      0.198884  
      37A      0.212918    38A      0.213087    39A      0.240220  
      40A      0.264255    41A      0.299721    42A      0.299745  
      43A      0.301669    44A      0.310477    45A      0.310583  
      46A      0.336123    47A      0.336128    48A      0.365403  
      49A      0.394753    50A      0.394755    51A      0.406467  
      52A      0.443068    53A      0.443072    54A      0.461455  
      55A      0.461476    56A      0.473136    57A      0.493096  
      58A      0.502832    59A      0.502888    60A      0.526644  
      61A      0.526656    62A      0.567855    63A      0.575269  
      64A      0.604085    65A      0.608243    66A      0.608243  
      67A      0.621684    68A      0.625972    69A      0.626088  
      70A      0.640564    71A      0.667662    72A      0.707539  
      73A      0.744497    74A      0.744509    75A      0.770699  
      76A      0.770711    77A      0.777535    78A      0.779211  
      79A      0.779238    80A      0.823112    81A      0.823166  
      82A      0.834454    83A      0.851239    84A      0.851245  
      85A      0.898067    86A      0.916171    87A      0.916212  
      88A      0.943487    89A      0.961086    90A      0.961092  
      91A      0.979594    92A      1.040746    93A      1.068368  
      94A      1.068389    95A      1.107579    96A      1.125204  
      97A      1.125214    98A      1.171018    99A      1.171032  
     100A      1.233877   101A      1.269291   102A      1.269292  
     103A      1.280267   104A      1.347780   105A      1.347810  
     106A      1.382242   107A      1.400145   108A      1.417947  
     109A      1.417951   110A      1.422927   111A      1.462702  
     112A      1.462711   113A      1.465001   114A      1.513096  
     115A      1.518142   116A      1.526836   117A      1.526856  
     118A      1.558385   119A      1.558385   120A      1.615314  
     121A      1.615331   122A      1.660782   123A      1.660782  
     124A      1.670613   125A      1.690846   126A      1.700355  
     127A      1.722298   128A      1.722316   129A      1.733990  
     130A      1.735191   131A      1.735199   132A      1.756744  
     133A      1.767587   134A      1.820051   135A      1.820062  
     136A      1.828655   137A      1.844063   138A      1.844069  
     139A      1.918377   140A      1.918401   141A      1.933299  
     142A      1.933313   143A      1.943868   144A      1.956203  
     145A      2.002985   146A      2.015234   147A      2.015246  
     148A      2.040767   149A      2.045783   150A      2.045795  
     151A      2.063371   152A      2.102355   153A      2.102357  
     154A      2.131961   155A      2.131966   156A      2.141782  
     157A      2.191590   158A      2.211824   159A      2.211831  
     160A      2.238763   161A      2.238765   162A      2.314560  
     163A      2.379783   164A      2.422486   165A      2.422510  
     166A      2.423212   167A      2.458586   168A      2.458591  
     169A      2.572997   170A      2.584408   171A      2.584416  
     172A      2.714877   173A      2.846626   174A      2.846627  
     175A      2.944869   176A      2.944881   177A      2.983019  
     178A      3.010181   179A      3.010182   180A      3.043488  
     181A      3.079953   182A      3.114550   183A      3.114556  
     184A      3.120722   185A      3.165329   186A      3.165343  
     187A      3.187312   188A      3.249906   189A      3.326108  
     190A      3.326111   191A      3.383365   192A      3.383690  
     193A      3.383694   194A      3.432287   195A      3.432309  
     196A      3.492533   197A      3.655782   198A      3.655789  
     199A      3.669656   200A      3.683399   201A      3.742647  
     202A      3.742660   203A      3.855699   204A      3.855706  
     205A      3.892587   206A      3.892587   207A      3.927955  
     208A      3.973790   209A      4.056991   210A      4.056999  
     211A      4.145903   212A      4.145906   213A      4.200733  
     214A      4.202458   215A      4.212582   216A      4.212584  
     217A      4.221676   218A      4.231681   219A      4.247658  
     220A      4.247666   221A      4.255504   222A      4.255507  
     223A      4.280211   224A      4.290857   225A      4.295051  
     226A      4.368043   227A      4.370784   228A      4.370785  
     229A      4.404349   230A      4.404354   231A      4.567497  
     232A      4.573224   233A      4.573225   234A      4.659118  
     235A      4.659119   236A      4.696092   237A      4.700792  
     238A      4.700798   239A      4.955825   240A      5.193208  
     241A      5.193213   242A      5.296955   243A      5.394496  
     244A      5.394505   245A      5.614714   246A      5.675383  
     247A      5.675390   248A      5.693150   249A      5.806613  
     250A      5.806626   251A      6.098003   252A      6.165377  
     253A      6.165383   254A      6.276233   255A      6.296689  
     256A      6.313831   257A      6.435486   258A      6.435486  
     259A      6.758505   260A      6.758522   261A      6.982996  
     262A      7.001219   263A      7.006816   264A      7.006823  
     265A      7.147901   266A      7.147903   267A      7.460848  
     268A      7.460848   269A      7.466443   270A      7.651724  
     271A      7.911790   272A      8.057892   273A      8.090326  
     274A      8.090334   275A      8.125480   276A      8.125482  
     277A      8.170429   278A      8.170444   279A      8.215369  
     280A      8.227987   281A      8.227992   282A      8.333136  
     283A      8.370668   284A      8.370675   285A      8.478251  
     286A      8.478257   287A      8.606759   288A      8.606770  
     289A      8.745948   290A      8.933442   291A      8.933449  
     292A      8.992865   293A      9.051901   294A      9.105686  
     295A      9.111847   296A      9.111852   297A      9.177036  
     298A      9.177049   299A      9.334170   300A      9.334180  
     301A      9.381710   302A      9.460803   303A      9.465647  
     304A      9.557035   305A      9.557040   306A      9.698557  
     307A      9.803533   308A      9.974914   309A      9.974921  
     310A     10.050617   311A     10.050628   312A     10.337114  
     313A     10.400866   314A     10.449543   315A     10.449554  
     316A     10.625881   317A     10.625886   318A     10.730608  
     319A     10.730608   320A     10.769168   321A     10.801604  
     322A     11.241338   323A     11.241339   324A     11.437499  
     325A     11.921840   326A     11.921848   327A     11.965708  
     328A     12.348488   329A     12.406133   330A     12.406147  
     331A     13.026951   332A     13.026958   333A     13.253834  
     334A     13.875869   335A     14.151903   336A     14.354478  
     337A     14.354490   338A     14.557414   339A     14.557420  
     340A     15.902804   341A     15.902812   342A     16.282501  
     343A     18.291626   344A     19.963817   345A     21.711089  
     346A     21.711127   347A     25.711595   348A     96.436837  

    Final Occupation by Irrep:
              A 
    DOCC [     9 ]
    NA   [     9 ]
    NB   [     9 ]

  @DF-RKS Final Energy:  -460.67502828906345

   => Energetics <=

    Nuclear Repulsion Energy =              6.6967004737335767
    One-Electron Energy =                -649.2513294605405463
    Two-Electron Energy =                 203.3313758688401549
    DFT Exchange-Correlation Energy =     -21.4517751710966351
    Empirical Dispersion Energy =           0.0000000000000000
    VV10 Nonlocal Energy =                  0.0000000000000000
    Total Energy =                       -460.6750282890634480

Computation Completed


Properties will be evaluated at   0.000000,   0.000000,   0.000000 [a0]

Properties computed using the SCF density matrix


 Multipole Moments:

 ------------------------------------------------------------------------------------
     Multipole            Electronic (a.u.)      Nuclear  (a.u.)        Total (a.u.)
 ------------------------------------------------------------------------------------

 L = 1.  Multiply by 2.5417464519 to convert [e a0] to [Debye]
 Dipole X            :          0.0000160           -0.0000065            0.0000095
 Dipole Y            :        -32.9892089           32.5192614           -0.4699475
 Dipole Z            :          0.0000000            0.0000000            0.0000000
 Magnitude           :                                                    0.4699475

 ------------------------------------------------------------------------------------

*** tstop() called on cmpsrv002 at Tue Sep 17 13:37:47 2024
Module time:
	user time   =      63.15 seconds =       1.05 minutes
	system time =       3.38 seconds =       0.06 minutes
	total time  =         56 seconds =       0.93 minutes
Total time:
	user time   =     243.75 seconds =       4.06 minutes
	system time =      10.88 seconds =       0.18 minutes
	total time  =        136 seconds =       2.27 minutes
   => Libint2 <=

    Primary   basis highest AM E, G, H:  6, 6, 3
    Auxiliary basis highest AM E, G, H:  7, 7, 4
    Onebody   basis highest AM E, G, H:  -, -, -
    Solid Harmonics ordering:            Gaussian

*** tstart() called on cmpsrv002
*** at Tue Sep 17 13:37:47 2024

   => Loading Basis Set <=

    Name: THIS_BASIS
    Role: ORBITAL
    Keyword: BASIS
    atoms 1, 4-6 entry H          line    40 file /home/vance/anaconda3/envs/p4env/share/psi4/basis/aug-cc-pvqz.gbs 
    atoms 2      entry CL         line  1222 file /home/vance/anaconda3/envs/p4env/share/psi4/basis/aug-cc-pvqz.gbs 
    atoms 3      entry N          line   363 file /home/vance/anaconda3/envs/p4env/share/psi4/basis/aug-cc-pvqz.gbs 


         ---------------------------------------------------------
                          SAPT(DFT): DFT Monomer B                 
         ---------------------------------------------------------
                                   SCF
               by Justin Turney, Rob Parrish, Andy Simmonett
                          and Daniel G. A. Smith
                              RKS Reference
                        4 Threads,   7629 MiB Core
         ---------------------------------------------------------

  ==> Geometry <==

    Molecular point group: c1
    Full point group: Cs

    Geometry (in Angstrom), charge = 0, multiplicity = 1:

       Center              X                  Y                   Z               Mass       
    ------------   -----------------  -----------------  -----------------  -----------------
      Gh(H)          -0.000000190144    -0.312694329665     0.000000000000     1.007825032230
      Gh(CL)         -0.000000190144     1.030655670335     0.000000000000    34.968852682000
         N           -0.000000190144    -2.034484329665     0.000000000000    14.003074004430
         H           -0.473180190144    -2.393494329665     0.819580000000     1.007825032230
         H           -0.473180190144    -2.393494329665    -0.819580000000     1.007825032230
         H            0.946369809856    -2.393494329665     0.000000000000     1.007825032230

  Running in c1 symmetry.

  Rotational constants: A =      6.22544  B =      0.14803  C =      0.14803 [cm^-1]
  Rotational constants: A = 186633.95025  B =   4437.83630  C =   4437.83599 [MHz]
  Nuclear repulsion =   11.947542838505765

  Charge       = 0
  Multiplicity = 1
  Electrons    = 10
  Nalpha       = 5
  Nbeta        = 5

  ==> Algorithm <==

  SCF Algorithm Type is DF.
  DIIS enabled.
  MOM disabled.
  Fractional occupation disabled.
  Guess Type is SAD.
  Energy threshold   = 1.00e-08
  Density threshold  = 1.00e-08
  Integral threshold = 1.00e-12

  ==> Primary Basis <==

  Basis Set: THIS_BASIS
    Blend: AUG-CC-PVQZ
    Number of shells: 98
    Number of basis functions: 348
    Number of Cartesian functions: 434
    Spherical Harmonics?: true
    Max angular momentum: 4

  ==> DFT Potential <==

   => LibXC <=

    Version 6.2.2
    S. Lehtola, C. Steigemann, M. J.T. Oliveira, and M. A.L. Marques.,  SoftwareX 7, 15 (2018) (10.1016/j.softx.2017.11.002)

   => Composite Functional: PBE0 <= 

    PBE0 Hyb-GGA Exchange-Correlation Functional

    C. Adamo and V. Barone.,  J. Chem. Phys. 110, 6158 (1999) (10.1063/1.478522)
    M. Ernzerhof and G. E. Scuseria.,  J. Chem. Phys. 110, 5029 (1999) (10.1063/1.478401)

    Deriv               =              1
    GGA                 =           TRUE
    Meta                =          FALSE

    Exchange Hybrid     =           TRUE
    MP2 Hybrid          =          FALSE

   => Exchange Functionals <=

    0.7500   Perdew, Burke & Ernzerhof

   => Exact (HF) Exchange <=

    0.2500               HF 

   => Correlation Functionals <=

    1.0000   Perdew, Burke & Ernzerhof

   => LibXC Density Thresholds  <==

    XC_HYB_GGA_XC_PBEH:  1.00E-15 

   => Asymptotic Correction <=

    X Functional        =    XC_GGA_X_LB
    C Functional        =   XC_LDA_C_VWN
    Bulk Shift          =       0.113162
    GRAC Alpha          =       0.500000
    GRAC Beta           =      40.000000

   => Molecular Quadrature <=

    Radial Scheme          =       TREUTLER
    Pruning Scheme         =           NONE
    Nuclear Scheme         =       TREUTLER

    Blocking Scheme        =         OCTREE
    BS radius alpha        =              1
    Pruning alpha          =              1
    Radial Points          =             75
    Spherical Points       =            302
    Total Points           =         131862
    Total Blocks           =           1050
    Max Points             =            256
    Max Functions          =            348
    Weights Tolerance      =       1.00E-15

   => Loading Basis Set <=

    Name: (THIS_BASIS AUX)
    Role: JKFIT
    Keyword: DF_BASIS_SCF
    atoms 1, 4-6 entry H          line    70 file /home/vance/anaconda3/envs/p4env/share/psi4/basis/aug-cc-pvqz-jkfit.gbs 
    atoms 2      entry CL         line   904 file /home/vance/anaconda3/envs/p4env/share/psi4/basis/aug-cc-pvqz-jkfit.gbs 
    atoms 3      entry N          line   248 file /home/vance/anaconda3/envs/p4env/share/psi4/basis/aug-cc-pvqz-jkfit.gbs 

  ==> Integral Setup <==

  ==> DiskDFJK: Density-Fitted J/K Matrices <==

    J tasked:                  Yes
    K tasked:                  Yes
    wK tasked:                  No
    OpenMP threads:              4
    Integrals threads:           4
    Memory [MiB]:             4554
    Algorithm:                Core
    Integral Cache:           SAVE
    Schwarz Cutoff:          1E-12
    Fitting Condition:       1E-10

   => Auxiliary Basis Set <=

  Basis Set: (THIS_BASIS AUX)
    Blend: AUG-CC-PVQZ-JKFIT
    Number of shells: 152
    Number of basis functions: 630
    Number of Cartesian functions: 849
    Spherical Harmonics?: true
    Max angular momentum: 5

  Cached 100.0% of DFT collocation blocks in 1.141 [GiB].

  Minimum eigenvalue in the overlap matrix is 1.0951420811E-05.
  Reciprocal condition number of the overlap matrix is 9.2087033648E-07.
    Using symmetric orthogonalization.

  ==> Pre-Iterations <==

  SCF Guess: Superposition of Atomic Densities via on-the-fly atomic UHF (no occupation information).

   -------------------------
    Irrep   Nso     Nmo    
   -------------------------
     A        348     348 
   -------------------------
    Total     348     348
   -------------------------

  ==> Iterations <==

                           Total Energy        Delta E     RMS |[F,P]|

   @DF-RKS iter SAD:   -56.05945809290714   -5.60595e+01   0.00000e+00 
   @DF-RKS iter   1:   -56.27373555743257   -2.14277e-01   2.26044e-03 DIIS/ADIIS
   @DF-RKS iter   2:   -55.96851942421131    3.05216e-01   3.03951e-03 DIIS/ADIIS
   @DF-RKS iter   3:   -56.51749972497761   -5.48980e-01   1.92827e-04 DIIS/ADIIS
   @DF-RKS iter   4:   -56.51975474203552   -2.25502e-03   1.93780e-05 DIIS
   @DF-RKS iter   5:   -56.51976865904108   -1.39170e-05   4.50379e-06 DIIS
   @DF-RKS iter   6:   -56.51976841839922    2.40642e-07   1.52794e-07 DIIS
   @DF-RKS iter   7:   -56.51976833973337    7.86658e-08   2.27793e-08 DIIS
   @DF-RKS iter   8:   -56.51976832036731    1.93661e-08   3.04332e-09 DIIS
   @DF-RKS iter   9:   -56.51976831969722    6.70092e-10   3.26677e-10 DIIS
  Energy and wave function converged.


  ==> Post-Iterations <==

   Electrons on quadrature grid:
      Ntotal   =    9.9999933635 ; deviation = -6.636e-06 

    Orbital Energies [Eh]
    ---------------------

    Doubly Occupied:                                                      

       1A    -14.470551     2A     -0.988319     3A     -0.590823  
       4A     -0.590821     5A     -0.393230  

    Virtual:                                                              

       6A     -0.103655     7A     -0.053629     8A     -0.053628  
       9A     -0.038990    10A     -0.000734    11A      0.007537  
      12A      0.007538    13A      0.012311    14A      0.022107  
      15A      0.022112    16A      0.032640    17A      0.032641  
      18A      0.040349    19A      0.054231    20A      0.081462  
      21A      0.081464    22A      0.144091    23A      0.152277  
      24A      0.169059    25A      0.173309    26A      0.173312  
      27A      0.182964    28A      0.182972    29A      0.185762  
      30A      0.190485    31A      0.202955    32A      0.202958  
      33A      0.221423    34A      0.221433    35A      0.236081  
      36A      0.251627    37A      0.251632    38A      0.267748  
      39A      0.302369    40A      0.302370    41A      0.329834  
      42A      0.329843    43A      0.339227    44A      0.375236  
      45A      0.375244    46A      0.403981    47A      0.425602  
      48A      0.425609    49A      0.448006    50A      0.489258  
      51A      0.511006    52A      0.534341    53A      0.539077  
      54A      0.539088    55A      0.566171    56A      0.570767  
      57A      0.570771    58A      0.573618    59A      0.581164  
      60A      0.581171    61A      0.585107    62A      0.643848  
      63A      0.643868    64A      0.671982    65A      0.671985  
      66A      0.704174    67A      0.704189    68A      0.718943  
      69A      0.746570    70A      0.762561    71A      0.762565  
      72A      0.772059    73A      0.772117    74A      0.773093  
      75A      0.819189    76A      0.884424    77A      0.898074  
      78A      0.898093    79A      0.901059    80A      0.901078  
      81A      0.908559    82A      0.919108    83A      0.919112  
      84A      0.963537    85A      0.963549    86A      0.979916  
      87A      1.004188    88A      1.004206    89A      1.008839  
      90A      1.120264    91A      1.129302    92A      1.137577  
      93A      1.137583    94A      1.186750    95A      1.193476  
      96A      1.193481    97A      1.225168    98A      1.225169  
      99A      1.228602   100A      1.275255   101A      1.303529  
     102A      1.303541   103A      1.318935   104A      1.332333  
     105A      1.413045   106A      1.413053   107A      1.469628  
     108A      1.469628   109A      1.490507   110A      1.490515  
     111A      1.535854   112A      1.537537   113A      1.560859  
     114A      1.574675   115A      1.597902   116A      1.597904  
     117A      1.634922   118A      1.634935   119A      1.687036  
     120A      1.687041   121A      1.731814   122A      1.751402  
     123A      1.767834   124A      1.767877   125A      1.822704  
     126A      1.833864   127A      1.833867   128A      1.848783  
     129A      1.866633   130A      1.866641   131A      1.918064  
     132A      1.918078   133A      1.919068   134A      1.962145  
     135A      1.983764   136A      1.983768   137A      2.031453  
     138A      2.039080   139A      2.039098   140A      2.073182  
     141A      2.094467   142A      2.094486   143A      2.124100  
     144A      2.187705   145A      2.187726   146A      2.226835  
     147A      2.235808   148A      2.262379   149A      2.262401  
     150A      2.268413   151A      2.274662   152A      2.274682  
     153A      2.361523   154A      2.378583   155A      2.394524  
     156A      2.413746   157A      2.413750   158A      2.432430  
     159A      2.432436   160A      2.498611   161A      2.533343  
     162A      2.533354   163A      2.577288   164A      2.616781  
     165A      2.616810   166A      2.662772   167A      2.662789  
     168A      2.711323   169A      2.749157   170A      2.751700  
     171A      2.751707   172A      2.771084   173A      2.829916  
     174A      2.829917   175A      2.850883   176A      2.850901  
     177A      2.859201   178A      2.938513   179A      3.016911  
     180A      3.016923   181A      3.026220   182A      3.026258  
     183A      3.064700   184A      3.069183   185A      3.069197  
     186A      3.129721   187A      3.240595   188A      3.270233  
     189A      3.270252   190A      3.331424   191A      3.331432  
     192A      3.376114   193A      3.396771   194A      3.396775  
     195A      3.495672   196A      3.535042   197A      3.535045  
     198A      3.584865   199A      3.669470   200A      3.669475  
     201A      3.774719   202A      3.790969   203A      3.791003  
     204A      3.801470   205A      3.879132   206A      3.914696  
     207A      3.914699   208A      4.021378   209A      4.126091  
     210A      4.126100   211A      4.177235   212A      4.183322  
     213A      4.183326   214A      4.243955   215A      4.441422  
     216A      4.441439   217A      4.497138   218A      4.497151  
     219A      4.609831   220A      4.609841   221A      4.685711  
     222A      4.836725   223A      4.836731   224A      4.890949  
     225A      4.985854   226A      5.031121   227A      5.031126  
     228A      5.057246   229A      5.314802   230A      5.314804  
     231A      5.340290   232A      5.342257   233A      5.368292  
     234A      5.451002   235A      5.451007   236A      5.856273  
     237A      5.856275   238A      5.968607   239A      6.148730  
     240A      6.151104   241A      6.155009   242A      6.155010  
     243A      6.255178   244A      6.255191   245A      6.465416  
     246A      6.565000   247A      6.565018   248A      6.600249  
     249A      6.600256   250A      6.637721   251A      6.801937  
     252A      6.815673   253A      6.922889   254A      6.976954  
     255A      6.976962   256A      7.003853   257A      7.241088  
     258A      7.241102   259A      7.256600   260A      7.270002  
     261A      7.291434   262A      7.291453   263A      7.455493  
     264A      7.455513   265A      7.532882   266A      7.532889  
     267A      7.576199   268A      7.603634   269A      7.603645  
     270A      7.690131   271A      7.690143   272A      7.747334  
     273A      7.772739   274A      7.772766   275A      7.870456  
     276A      7.954385   277A      7.954389   278A      7.988156  
     279A      7.988162   280A      8.123138   281A      8.136166  
     282A      8.245510   283A      8.245539   284A      8.371883  
     285A      8.394603   286A      8.394618   287A      8.440980  
     288A      8.440990   289A      8.513882   290A      8.516177  
     291A      8.566475   292A      8.566479   293A      8.598221  
     294A      8.659038   295A      8.821333   296A      8.821345  
     297A      8.924708   298A      8.924713   299A      8.985807  
     300A      9.005731   301A      9.005750   302A      9.091459  
     303A      9.101181   304A      9.101200   305A      9.249263  
     306A      9.249268   307A      9.261248   308A      9.362573  
     309A      9.425872   310A      9.425888   311A      9.588997  
     312A      9.589000   313A      9.591153   314A      9.689720  
     315A      9.761797   316A      9.761800   317A      9.937241  
     318A      9.937245   319A     10.008611   320A     10.019266  
     321A     10.019272   322A     10.221049   323A     10.221061  
     324A     10.333430   325A     10.430440   326A     10.513331  
     327A     10.513334   328A     10.794510   329A     11.315956  
     330A     11.492185   331A     11.668345   332A     11.668354  
     333A     11.851320   334A     11.873889   335A     11.873907  
     336A     12.533213   337A     12.587940   338A     12.587960  
     339A     13.203206   340A     14.474978   341A     14.474991  
     342A     14.482414   343A     30.998616   344A     30.998616  
     345A     31.287354   346A     35.602671   347A     43.075912  
     348A    160.288656  

    Final Occupation by Irrep:
              A 
    DOCC [     5 ]
    NA   [     5 ]
    NB   [     5 ]

  @DF-RKS Final Energy:   -56.51976831969722

   => Energetics <=

    Nuclear Repulsion Energy =             11.9475428385057647
    One-Electron Energy =                 -99.6856641953703644
    Two-Electron Energy =                  37.2622037611565275
    DFT Exchange-Correlation Energy =      -6.0438507239891521
    Empirical Dispersion Energy =           0.0000000000000000
    VV10 Nonlocal Energy =                  0.0000000000000000
    Total Energy =                        -56.5197683196972207

Computation Completed


Properties will be evaluated at   0.000000,   0.000000,   0.000000 [a0]

Properties computed using the SCF density matrix


 Multipole Moments:

 ------------------------------------------------------------------------------------
     Multipole            Electronic (a.u.)      Nuclear  (a.u.)        Total (a.u.)
 ------------------------------------------------------------------------------------

 L = 1.  Multiply by 2.5417464519 to convert [e a0] to [Debye]
 Dipole X            :         -0.0000036            0.0000153            0.0000117
 Dipole Y            :         39.9090049          -40.4814736           -0.5724688
 Dipole Z            :          0.0000000            0.0000000            0.0000000
 Magnitude           :                                                    0.5724688

 ------------------------------------------------------------------------------------

*** tstop() called on cmpsrv002 at Tue Sep 17 13:38:40 2024
Module time:
	user time   =     107.36 seconds =       1.79 minutes
	system time =       3.79 seconds =       0.06 minutes
	total time  =         53 seconds =       0.88 minutes
Total time:
	user time   =     351.12 seconds =       5.85 minutes
	system time =      14.67 seconds =       0.24 minutes
	total time  =        189 seconds =       3.15 minutes

         ---------------------------------------------------------
               SAPT(DFT): Intermolecular Interaction Segment       

                   by Daniel G. A. Smith and Rob Parrish           
         ---------------------------------------------------------

  ==> Algorithm <==

   SAPT DFT Functional             PBE0
   Monomer A GRAC Shift        0.116251
   Monomer B GRAC Shift        0.113162
   Delta HF                        True
   JK Algorithm                      DF

  ==> Preparing SAPT Data Cache <== 

  ==> DiskDFJK: Density-Fitted J/K Matrices <==

    J tasked:                  Yes
    K tasked:                  Yes
    wK tasked:                  No
    OpenMP threads:              4
    Integrals threads:           4
    Memory [MiB]:             4554
    Algorithm:                Core
    Integral Cache:           SAVE
    Schwarz Cutoff:          1E-12
    Fitting Condition:       1E-10

   => Auxiliary Basis Set <=

  Basis Set: (THIS_BASIS AUX)
    Blend: AUG-CC-PVQZ-JKFIT
    Number of shells: 152
    Number of basis functions: 630
    Number of Cartesian functions: 849
    Spherical Harmonics?: true
    Max angular momentum: 5


  ==> E10 Electostatics <== 

    Elst10,r                        -32.69957581 [mEh]

  ==> E10 Exchange <== 

    Exch10(S^2)                      44.62793609 [mEh]
    Exch10                           46.16429462 [mEh]

  ==> E20 Induction <== 

   => Uncoupled Induction <= 

    Ind20,u (A<-B)                   -7.16790607 [mEh]
    Ind20,u (A->B)                  -17.42569101 [mEh]
    Ind20,u                         -24.59359708 [mEh]
    Exch-Ind20,u (A<-B)               4.52686244 [mEh]
    Exch-Ind20,u (A->B)               9.83734988 [mEh]
    Exch-Ind20,u                     14.36421232 [mEh]
    Exch-Ind20,u (A<-B) (S^inf)       4.87534154 [mEh]
    Exch-Ind20,u (A->B) (S^inf)      10.72872068 [mEh]
    Exch-Ind20,u (S^inf)             15.60406222 [mEh]

   => Coupled Induction <= 

   ---------------------------------------------------
              SAPT Coupled Induction Solver           
   ---------------------------------------------------
    Maxiter             =          20
    Convergence         =   1.000E-06
   ---------------------------------------------------
     Iter       (A<-B)           (B->A)      Time [s]
   ---------------------------------------------------
    Guess    1.927856e-01     1.453179e-01         12
        1    3.206923e-02     5.583747e-02         23
        2    9.130821e-03     1.863282e-02         36
        3    1.677921e-03     1.707441e-03         51
        4    1.496656e-04     1.358647e-04         64
        5    2.569394e-05     7.617060e-06         75
        6    1.358382e-06     7.599237e-07*        86
        7    9.799335e-08*    7.599237e-07*        92
   ---------------------------------------------------

    Ind20,r (A<-B)                   -7.03889259 [mEh]
    Ind20,r (A->B)                  -18.53450757 [mEh]
    Ind20,r                         -25.57340016 [mEh]
    Exch-Ind20,r (A<-B)               4.99574776 [mEh]
    Exch-Ind20,r (A->B)              11.03625812 [mEh]
    Exch-Ind20,r                     16.03200588 [mEh]
    Exch-Ind20,r (A<-B) (S^inf)       5.38523562 [mEh]
    Exch-Ind20,r (A->B) (S^inf)      12.04379137 [mEh]
    Exch-Ind20,r (S^inf)             17.42902699 [mEh]
   => Loading Basis Set <=

    Name: (THIS_BASIS AUX)
    Role: RIFIT
    Keyword: DF_BASIS_MP2
    atoms 1, 4-6 entry H          line    30 file /home/vance/anaconda3/envs/p4env/share/psi4/basis/aug-cc-pvqz-ri.gbs 
    atoms 2      entry CL         line   914 file /home/vance/anaconda3/envs/p4env/share/psi4/basis/aug-cc-pvqz-ri.gbs 
    atoms 3      entry N          line   258 file /home/vance/anaconda3/envs/p4env/share/psi4/basis/aug-cc-pvqz-ri.gbs 



  ==> E20 Dispersion (CHF FDDS) <== 

   Legendre Points:          10
   Lambda Shift:          0.300
   Fxc Kernal:             ALDA
   (P|Fxc|Q) Thresh:  1.000e-06
  DFHelper Memory: AOs need 0.644 GiB; user supplied 5.960 GiB. 
  Using in-core AOs.

  ==> DFHelper <==
    NBF:                             348
    NAux:                            682
    Schwarz Cutoff:                1E-12
    Mask sparsity (%):                 1
    DFH Avail. Memory [GiB]:       5.960
    OpenMP threads:                    4
    Algorithm:                    DIRECT
    AO Core:                        True
    MO Core:                       False
    Hold Metric:                   False
    Metric Power:                  0.000
    Fitting Condition:             1E-12
    Q Shell Max:                      11


  DFHelper Memory: AOs need 0.652 GiB; user supplied 5.960 GiB. 
  Using in-core AOs.


   => Time Integration <= 

       Omega       Weight       Disp20,u         Disp20   time [s]
   2.269e+01    6.667e-02      2.534e-04      2.382e-04          2
   4.147e+00    1.495e-01      4.416e-03      3.998e-03          4
   1.572e+00    2.191e-01      1.327e-02      1.119e-02          7
   7.589e-01    2.693e-01      2.160e-02      1.653e-02          8
   4.049e-01    2.955e-01      2.331e-02      1.644e-02         11
   2.223e-01    2.955e-01      1.884e-02      1.275e-02         14
   1.186e-01    2.693e-01      1.292e-02      8.619e-03         16
   5.727e-02    2.191e-01      8.083e-03      5.372e-03         19
   2.170e-02    1.495e-01      4.537e-03      3.012e-03         22
   3.966e-03    6.667e-02      1.811e-03      1.202e-03         24

    Disp20,u                        -17.35469943 [mEh]
    Disp20                          -12.62882310 [mEh]

  ==> E20 Dispersion (MP2) <== 


    Disp20 (MP2)                    -17.30781215 [mEh]
    Exch-Disp20,u                     3.76936701 [mEh]
    Scaling Scheme                    FIXED
    Scaling Factor                    0.770
    Est. Exch-Disp20,r                2.90241260 [mEh]

   SAPT(DFT) Results
  ---------------------------------------------------------------------------------------------------------
    Electrostatics                  -32.69957581 [mEh]    -20.51929361 [kcal/mol]    -85.85272446 [kJ/mol]
      Elst1,r                       -32.69957581 [mEh]    -20.51929361 [kcal/mol]    -85.85272446 [kJ/mol]

    Exchange                         46.16429462 [mEh]     28.96853222 [kcal/mol]    121.20433883 [kJ/mol]
      Exch1                          46.16429462 [mEh]     28.96853222 [kcal/mol]    121.20433883 [kJ/mol]
      Exch1(S^2)                     44.62793609 [mEh]     28.00445269 [kcal/mol]    117.17063006 [kJ/mol]

    Induction                       -20.70171503 [mEh]    -12.99052230 [kcal/mol]    -54.35234532 [kJ/mol]
      Ind2,r                        -25.57340016 [mEh]    -16.04755088 [kcal/mol]    -67.14295287 [kJ/mol]
      Exch-Ind2,r                    16.03200588 [mEh]     10.06023557 [kcal/mol]     42.09202564 [kJ/mol]
      Induction (A<-B)               -2.04314483 [mEh]     -1.28209274 [kcal/mol]     -5.36427601 [kJ/mol]
      Induction (A->B)               -7.49824945 [mEh]     -4.70522257 [kcal/mol]    -19.68665122 [kJ/mol]
      delta HF,r (2)                -11.16032075 [mEh]     -7.00320700 [kcal/mol]    -29.30141809 [kJ/mol]

    Dispersion                       -9.72641050 [mEh]     -6.10341474 [kcal/mol]    -25.53668726 [kJ/mol]
      Disp2,r                       -12.62882310 [mEh]     -7.92470614 [kcal/mol]    -33.15697048 [kJ/mol]
      Disp2,u                       -17.30781215 [mEh]    -10.86081609 [kcal/mol]    -45.44165453 [kJ/mol]
      Est. Exch-Disp2,r               2.90241260 [mEh]      1.82129140 [kcal/mol]      7.62028323 [kJ/mol]
      Exch-Disp2,u                    3.76936701 [mEh]      2.36531351 [kcal/mol]      9.89647172 [kJ/mol]

    Total SAPT(DFT)                 -16.96340672 [mEh]    -10.64469842 [kcal/mol]    -44.53741821 [kJ/mol]
  ---------------------------------------------------------------------------------------------------------

*** tstop() called on cmpsrv002 at Tue Sep 17 13:42:34 2024
Module time:
	user time   =     597.08 seconds =       9.95 minutes
	system time =      30.05 seconds =       0.50 minutes
	total time  =        287 seconds =       4.78 minutes
Total time:
	user time   =     840.84 seconds =      14.01 minutes
	system time =      40.93 seconds =       0.68 minutes
	total time  =        423 seconds =       7.05 minutes

    Psi4 stopped on: Tuesday, 17 September 2024 01:42PM
    Psi4 wall time for execution: 0:07:03.11

*** Psi4 exiting successfully. Buy a developer a beer!
