
    -----------------------------------------------------------------------
          Psi4: An Open-Source Ab Initio Electronic Structure Package
                               Psi4 1.9.1 release

                         Git: Rev {} zzzzzzz 


    D. G. A. Smith, L. A. Burns, A. C. Simmonett, R. M. Parrish,
    M. C. Schieber, R. Galvelis, P. Kraus, H. Kruse, R. Di Remigio,
    A. Alenaizan, A. M. James, S. Lehtola, J. P. Misiewicz, M. Scheurer,
    R. A. Shaw, J. B. Schriber, Y. Xie, Z. L. Glick, D. A. Sirianni,
    J. S. O'Brien, J. M. Waldrop, A. Kumar, E. G. Hohenstein,
    B. P. Pritchard, B. R. Brooks, H. F. Schaefer III, A. Yu. Sokolov,
    K. Patkowski, A. E. DePrince III, U. Bozkaya, R. A. King,
    F. A. Evangelista, J. M. Turney, T. D. Crawford, C. D. Sherrill,
    J. Chem. Phys. 152(18) 184108 (2020). https://doi.org/10.1063/5.0006002

                            Additional Code Authors
    E. T. Seidl, C. L. Janssen, E. F. Valeev, M. L. Leininger,
    J. F. Gonthier, R. M. Richard, H. R. McAlexander, M. Saitow, X. Wang,
    P. Verma, M. H. Lechner, A. Jiang, S. Behnle, A. G. Heide,
    M. F. Herbst, and D. L. Poole

             Previous Authors, Complete List of Code Contributors,
                       and Citations for Specific Modules
    https://github.com/psi4/psi4/blob/master/codemeta.json
    https://github.com/psi4/psi4/graphs/contributors
    http://psicode.org/psi4manual/master/introduction.html#citing-psifour

    -----------------------------------------------------------------------


    Psi4 started on: Thursday, 19 September 2024 02:16PM

    Process ID: 605859
    Host:       cmpsrv002
    PSIDATADIR: /home/vance/anaconda3/envs/p4env/share/psi4
    Memory:     500.0 MiB
    Threads:    8
    
  ==> Input File <==

--------------------------------------------------------------------------
#charge=0 charge_a=0 charge_b=0 selection_a=1-2 selection_b=3-6 scaling=2.0 benchmark_Eint=-2.190 benchmark_unit=kcal/mol group=XH-N
set_num_threads(4)
memory 8 GB
basis this_basis {
    assign    def2-qzvp
}

molecule {
     0 1
    --
     0 1
     H        0.00000       -0.31269        0.00000
    Cl       -0.00000        1.03066        0.00000
    --
     0 1
     N        0.00001       -3.75628        0.00000
     H       -0.47318       -4.11529        0.81958
     H       -0.47318       -4.11529       -0.81958
     H        0.94637       -4.11529        0.00000
}

set {
    sapt_dft_functional     PBE0
    scf_type                DF
    freeze_core             true
    sapt_dft_grac_shift_a    0.116251
    sapt_dft_grac_shift_b    0.113162
    sapt_dft_do_hybrid      true
    do_ind_exch_sinf        true
    do_disp_exch_sinf       true
}

nrg = energy('sapt(DFT)')
--------------------------------------------------------------------------
  Threads set to 4 by Python driver.

  Memory set to   7.451 GiB by Python driver.

Scratch directory: /scratch2/vance/psi4/

*** tstart() called on cmpsrv002
*** at Thu Sep 19 14:16:09 2024

  SAPT does not make use of molecular symmetry, further calculations in C1 point group.

         ---------------------------------------------------------
                            SAPT(DFT) Procedure                    

                           by Daniel G. A. Smith                   
         ---------------------------------------------------------

Warning! The default value of SAPT_DFT_EXCH_DISP_SCALE_SCHEME has changed from DISP to FIXED. Please be careful comparing results with earlier versions. 

  ==> Algorithm <==

   SAPT DFT Functional             PBE0
   Monomer A GRAC Shift        0.116251
   Monomer B GRAC Shift        0.113162
   Delta HF                        True
   JK Algorithm                      DF

   Required computations:
     HF  (Dimer)
     HF  (Monomer A)
     HF  (Monomer B)
     DFT (Monomer A)
     DFT (Monomer B)

   => Libint2 <=

    Primary   basis highest AM E, G, H:  6, 6, 3
    Auxiliary basis highest AM E, G, H:  7, 7, 4
    Onebody   basis highest AM E, G, H:  -, -, -
    Solid Harmonics ordering:            Gaussian

*** tstart() called on cmpsrv002
*** at Thu Sep 19 14:16:09 2024

   => Loading Basis Set <=

    Name: THIS_BASIS
    Role: ORBITAL
    Keyword: BASIS
    atoms 1, 4-6 entry H          line    15 file /home/vance/anaconda3/envs/p4env/share/psi4/basis/def2-qzvp.gbs 
    atoms 2      entry CL         line   809 file /home/vance/anaconda3/envs/p4env/share/psi4/basis/def2-qzvp.gbs 
    atoms 3      entry N          line   242 file /home/vance/anaconda3/envs/p4env/share/psi4/basis/def2-qzvp.gbs 


         ---------------------------------------------------------
                         SAPT(DFT): delta HF Dimer                 
         ---------------------------------------------------------
                                   SCF
               by Justin Turney, Rob Parrish, Andy Simmonett
                          and Daniel G. A. Smith
                              RHF Reference
                        4 Threads,   7629 MiB Core
         ---------------------------------------------------------

  ==> Geometry <==

    Molecular point group: c1
    Full point group: Cs

    Geometry (in Angstrom), charge = 0, multiplicity = 1:

       Center              X                  Y                   Z               Mass       
    ------------   -----------------  -----------------  -----------------  -----------------
         H           -0.000002832073     0.240409962352     0.000000000000     1.007825032230
         CL          -0.000002832073     1.583759962352     0.000000000000    34.968852682000
         N            0.000007167927    -3.203180037648     0.000000000000    14.003074004430
         H           -0.473182832073    -3.562190037648     0.819580000000     1.007825032230
         H           -0.473182832073    -3.562190037648    -0.819580000000     1.007825032230
         H            0.946367167927    -3.562190037648     0.000000000000     1.007825032230

  Running in c1 symmetry.

  Rotational constants: A =      6.22544  B =      0.06217  C =      0.06217 [cm^-1]
  Rotational constants: A = 186633.95024  B =   1863.72225  C =   1863.72220 [MHz]
  Nuclear repulsion =   38.438060279071728

  Charge       = 0
  Multiplicity = 1
  Electrons    = 28
  Nalpha       = 14
  Nbeta        = 14

  ==> Algorithm <==

  SCF Algorithm Type is DF.
  DIIS enabled.
  MOM disabled.
  Fractional occupation disabled.
  Guess Type is SAD.
  Energy threshold   = 1.00e-08
  Density threshold  = 1.00e-08
  Integral threshold = 1.00e-12

  ==> Primary Basis <==

  Basis Set: THIS_BASIS
    Blend: DEF2-QZVP
    Number of shells: 79
    Number of basis functions: 247
    Number of Cartesian functions: 298
    Spherical Harmonics?: true
    Max angular momentum: 4

   => Loading Basis Set <=

    Name: (THIS_BASIS AUX)
    Role: JKFIT
    Keyword: DF_BASIS_SCF
    atoms 1, 4-6 entry H          line    18 file /home/vance/anaconda3/envs/p4env/share/psi4/basis/def2-universal-jkfit.gbs 
    atoms 2      entry CL         line   986 file /home/vance/anaconda3/envs/p4env/share/psi4/basis/def2-universal-jkfit.gbs 
    atoms 3      entry N          line   258 file /home/vance/anaconda3/envs/p4env/share/psi4/basis/def2-universal-jkfit.gbs 

  ==> Integral Setup <==

  ==> DiskDFJK: Density-Fitted J/K Matrices <==

    J tasked:                  Yes
    K tasked:                  Yes
    wK tasked:                  No
    OpenMP threads:              4
    Integrals threads:           4
    Memory [MiB]:             5722
    Algorithm:                Core
    Integral Cache:           SAVE
    Schwarz Cutoff:          1E-12
    Fitting Condition:       1E-10

   => Auxiliary Basis Set <=

  Basis Set: (THIS_BASIS AUX)
    Blend: DEF2-UNIVERSAL-JKFIT
    Number of shells: 87
    Number of basis functions: 277
    Number of Cartesian functions: 328
    Spherical Harmonics?: true
    Max angular momentum: 4

  Minimum eigenvalue in the overlap matrix is 1.6993672697E-04.
  Reciprocal condition number of the overlap matrix is 2.1320336528E-05.
    Using symmetric orthogonalization.

  ==> Pre-Iterations <==

  SCF Guess: Superposition of Atomic Densities via on-the-fly atomic UHF (no occupation information).

   -------------------------
    Irrep   Nso     Nmo    
   -------------------------
     A        247     247 
   -------------------------
    Total     247     247
   -------------------------

  ==> Iterations <==

                           Total Energy        Delta E     RMS |[F,P]|

   @DF-RHF iter SAD:  -515.52828860577461   -5.15528e+02   0.00000e+00 
   @DF-RHF iter   1:  -516.22238054208492   -6.94092e-01   2.03922e-03 ADIIS/DIIS
   @DF-RHF iter   2:  -516.30707489219265   -8.46944e-02   1.11360e-03 ADIIS/DIIS
   @DF-RHF iter   3:  -516.33542932026148   -2.83544e-02   1.27646e-04 ADIIS/DIIS
   @DF-RHF iter   4:  -516.33643700396317   -1.00768e-03   4.49038e-05 DIIS
   @DF-RHF iter   5:  -516.33652705512225   -9.00512e-05   1.13382e-05 DIIS
   @DF-RHF iter   6:  -516.33653703140203   -9.97628e-06   2.59236e-06 DIIS
   @DF-RHF iter   7:  -516.33653773264734   -7.01245e-07   6.23131e-07 DIIS
   @DF-RHF iter   8:  -516.33653776818744   -3.55401e-08   1.22562e-07 DIIS
   @DF-RHF iter   9:  -516.33653776908511   -8.97671e-10   3.11413e-08 DIIS
   @DF-RHF iter  10:  -516.33653776914662   -6.15046e-11   6.99956e-09 DIIS
  Energy and wave function converged.


  ==> Post-Iterations <==

    Orbital Energies [Eh]
    ---------------------

    Doubly Occupied:                                                      

       1A   -104.839044     2A    -15.550449     3A    -10.562940  
       4A     -8.030056     5A     -8.028481     6A     -8.028481  
       7A     -1.150757     8A     -1.092557     9A     -0.641899  
      10A     -0.641894    11A     -0.597950    12A     -0.463401  
      13A     -0.463401    14A     -0.438211  

    Virtual:                                                              

      15A      0.088427    16A      0.131979    17A      0.151541  
      18A      0.151541    19A      0.245546    20A      0.283760  
      21A      0.284199    22A      0.284199    23A      0.316718  
      24A      0.316718    25A      0.339637    26A      0.448354  
      27A      0.448355    28A      0.463536    29A      0.506008  
      30A      0.506008    31A      0.513228    32A      0.513231  
      33A      0.513456    34A      0.546750    35A      0.546751  
      36A      0.620311    37A      0.713403    38A      0.801713  
      39A      0.801714    40A      0.859660    41A      0.874988  
      42A      0.900004    43A      0.900004    44A      1.010355  
      45A      1.010357    46A      1.063188    47A      1.067556  
      48A      1.067560    49A      1.090634    50A      1.160381  
      51A      1.224130    52A      1.274379    53A      1.274380  
      54A      1.305055    55A      1.305055    56A      1.338812  
      57A      1.387462    58A      1.398587    59A      1.398587  
      60A      1.420567    61A      1.420568    62A      1.428786  
      63A      1.428786    64A      1.497226    65A      1.521487  
      66A      1.521487    67A      1.552376    68A      1.572612  
      69A      1.572612    70A      1.763595    71A      1.763595  
      72A      1.841927    73A      1.841928    74A      2.093686  
      75A      2.187547    76A      2.298286    77A      2.298287  
      78A      2.320967    79A      2.320967    80A      2.334612  
      81A      2.386053    82A      2.456371    83A      2.456372  
      84A      2.472878    85A      2.472882    86A      2.500428  
      87A      2.519398    88A      2.519400    89A      2.587762  
      90A      2.587771    91A      2.620572    92A      2.620574  
      93A      2.683909    94A      2.767955    95A      2.814546  
      96A      2.814551    97A      2.844102    98A      2.883281  
      99A      2.939494   100A      2.939494   101A      3.023593  
     102A      3.043988   103A      3.043989   104A      3.185882  
     105A      3.185888   106A      3.202132   107A      3.231502  
     108A      3.426936   109A      3.520096   110A      3.520098  
     111A      3.588697   112A      3.588697   113A      3.598296  
     114A      3.667222   115A      3.667222   116A      3.746214  
     117A      3.795038   118A      3.940228   119A      3.940228  
     120A      3.944119   121A      3.944133   122A      3.973311  
     123A      3.973311   124A      4.061406   125A      4.061406  
     126A      4.164829   127A      4.210744   128A      4.275662  
     129A      4.275662   130A      4.325412   131A      4.325412  
     132A      4.343351   133A      4.343355   134A      4.352593  
     135A      4.352604   136A      4.361910   137A      4.361910  
     138A      4.539982   139A      4.620390   140A      4.620403  
     141A      4.803884   142A      4.874734   143A      4.874734  
     144A      4.980765   145A      5.051936   146A      5.409042  
     147A      5.409063   148A      6.104065   149A      6.104065  
     150A      6.135424   151A      6.135424   152A      6.253230  
     153A      6.253232   154A      6.267900   155A      6.323969  
     156A      6.360328   157A      6.360328   158A      6.657841  
     159A      6.657841   160A      6.787871   161A      6.815188  
     162A      6.899734   163A      6.909831   164A      6.909833  
     165A      7.099329   166A      7.099334   167A      7.262049  
     168A      7.280622   169A      7.280629   170A      7.338712  
     171A      7.338733   172A      7.371476   173A      7.525202  
     174A      7.577873   175A      7.577877   176A      7.593837  
     177A      7.680838   178A      7.680840   179A      7.781032  
     180A      7.893938   181A      7.966653   182A      7.966654  
     183A      8.124754   184A      8.124755   185A      8.225291  
     186A      8.225291   187A      8.273096   188A      8.273639  
     189A      8.273646   190A      8.313534   191A      8.347650  
     192A      8.357735   193A      8.357741   194A      8.388872  
     195A      8.388872   196A      8.501111   197A      8.656693  
     198A      8.675268   199A      8.675281   200A      8.766605  
     201A      8.766605   202A      8.833248   203A      8.872939  
     204A      8.872954   205A      8.912185   206A      8.962488  
     207A      9.029437   208A      9.029438   209A      9.139864  
     210A      9.435743   211A      9.534643   212A      9.534655  
     213A      9.838015   214A      9.838024   215A      9.996015  
     216A     10.106466   217A     10.106473   218A     10.298433  
     219A     10.433221   220A     10.519105   221A     10.529365  
     222A     10.529368   223A     11.286418   224A     11.286418  
     225A     11.369304   226A     11.369304   227A     11.563580  
     228A     11.685342   229A     11.685363   230A     11.959635  
     231A     12.044891   232A     12.105894   233A     12.105912  
     234A     12.296004   235A     12.296059   236A     12.461930  
     237A     14.816854   238A     14.816856   239A     15.683936  
     240A     29.746062   241A     39.362676   242A     43.285502  
     243A     43.285502   244A     43.428389   245A    100.161216  
     246A    200.457885   247A    530.352425  

    Final Occupation by Irrep:
              A 
    DOCC [    14 ]
    NA   [    14 ]
    NB   [    14 ]

  @DF-RHF Final Energy:  -516.33653776914662

   => Energetics <=

    Nuclear Repulsion Energy =             38.4380602790717276
    One-Electron Energy =                -788.4901512389861864
    Two-Electron Energy =                 233.7155531907678778
    Total Energy =                       -516.3365377691466165

Computation Completed


Properties will be evaluated at   0.000000,   0.000000,   0.000000 [a0]

Properties computed using the SCF density matrix


 Multipole Moments:

 ------------------------------------------------------------------------------------
     Multipole            Electronic (a.u.)      Nuclear  (a.u.)        Total (a.u.)
 ------------------------------------------------------------------------------------

 L = 1.  Multiply by 2.5417464519 to convert [e a0] to [Debye]
 Dipole X            :         -0.0000058            0.0000013           -0.0000044
 Dipole Y            :         10.0025404          -11.2334789           -1.2309386
 Dipole Z            :          0.0000000            0.0000000            0.0000000
 Magnitude           :                                                    1.2309386

 ------------------------------------------------------------------------------------

*** tstop() called on cmpsrv002 at Thu Sep 19 14:18:45 2024
Module time:
	user time   =      11.07 seconds =       0.18 minutes
	system time =       1.54 seconds =       0.03 minutes
	total time  =        156 seconds =       2.60 minutes
Total time:
	user time   =      11.08 seconds =       0.18 minutes
	system time =       1.54 seconds =       0.03 minutes
	total time  =        156 seconds =       2.60 minutes
   => Libint2 <=

    Primary   basis highest AM E, G, H:  6, 6, 3
    Auxiliary basis highest AM E, G, H:  7, 7, 4
    Onebody   basis highest AM E, G, H:  -, -, -
    Solid Harmonics ordering:            Gaussian

*** tstart() called on cmpsrv002
*** at Thu Sep 19 14:18:45 2024

   => Loading Basis Set <=

    Name: THIS_BASIS
    Role: ORBITAL
    Keyword: BASIS
    atoms 1, 4-6 entry H          line    15 file /home/vance/anaconda3/envs/p4env/share/psi4/basis/def2-qzvp.gbs 
    atoms 2      entry CL         line   809 file /home/vance/anaconda3/envs/p4env/share/psi4/basis/def2-qzvp.gbs 
    atoms 3      entry N          line   242 file /home/vance/anaconda3/envs/p4env/share/psi4/basis/def2-qzvp.gbs 


         ---------------------------------------------------------
                       SAPT(DFT): delta HF Monomer A               
         ---------------------------------------------------------
                                   SCF
               by Justin Turney, Rob Parrish, Andy Simmonett
                          and Daniel G. A. Smith
                              RHF Reference
                        4 Threads,   7629 MiB Core
         ---------------------------------------------------------

  ==> Geometry <==

    Molecular point group: c1
    Full point group: Cs

    Geometry (in Angstrom), charge = 0, multiplicity = 1:

       Center              X                  Y                   Z               Mass       
    ------------   -----------------  -----------------  -----------------  -----------------
         H           -0.000002832073     0.240409962352     0.000000000000     1.007825032230
         CL          -0.000002832073     1.583759962352     0.000000000000    34.968852682000
      Gh(N)           0.000007167927    -3.203180037648     0.000000000000    14.003074004430
      Gh(H)          -0.473182832073    -3.562190037648     0.819580000000     1.007825032230
      Gh(H)          -0.473182832073    -3.562190037648    -0.819580000000     1.007825032230
      Gh(H)           0.946367167927    -3.562190037648     0.000000000000     1.007825032230

  Running in c1 symmetry.

  Rotational constants: A =      6.22544  B =      0.06217  C =      0.06217 [cm^-1]
  Rotational constants: A = 186633.95024  B =   1863.72225  C =   1863.72220 [MHz]
  Nuclear repulsion =    6.696700473733578

  Charge       = 0
  Multiplicity = 1
  Electrons    = 18
  Nalpha       = 9
  Nbeta        = 9

  ==> Algorithm <==

  SCF Algorithm Type is DF.
  DIIS enabled.
  MOM disabled.
  Fractional occupation disabled.
  Guess Type is SAD.
  Energy threshold   = 1.00e-08
  Density threshold  = 1.00e-08
  Integral threshold = 1.00e-12

  ==> Primary Basis <==

  Basis Set: THIS_BASIS
    Blend: DEF2-QZVP
    Number of shells: 79
    Number of basis functions: 247
    Number of Cartesian functions: 298
    Spherical Harmonics?: true
    Max angular momentum: 4

   => Loading Basis Set <=

    Name: (THIS_BASIS AUX)
    Role: JKFIT
    Keyword: DF_BASIS_SCF
    atoms 1, 4-6 entry H          line    18 file /home/vance/anaconda3/envs/p4env/share/psi4/basis/def2-universal-jkfit.gbs 
    atoms 2      entry CL         line   986 file /home/vance/anaconda3/envs/p4env/share/psi4/basis/def2-universal-jkfit.gbs 
    atoms 3      entry N          line   258 file /home/vance/anaconda3/envs/p4env/share/psi4/basis/def2-universal-jkfit.gbs 

  ==> Integral Setup <==

  ==> DiskDFJK: Density-Fitted J/K Matrices <==

    J tasked:                  Yes
    K tasked:                  Yes
    wK tasked:                  No
    OpenMP threads:              4
    Integrals threads:           4
    Memory [MiB]:             5722
    Algorithm:                Core
    Integral Cache:           SAVE
    Schwarz Cutoff:          1E-12
    Fitting Condition:       1E-10

   => Auxiliary Basis Set <=

  Basis Set: (THIS_BASIS AUX)
    Blend: DEF2-UNIVERSAL-JKFIT
    Number of shells: 87
    Number of basis functions: 277
    Number of Cartesian functions: 328
    Spherical Harmonics?: true
    Max angular momentum: 4

  Minimum eigenvalue in the overlap matrix is 1.6993672697E-04.
  Reciprocal condition number of the overlap matrix is 2.1320336528E-05.
    Using symmetric orthogonalization.

  ==> Pre-Iterations <==

  SCF Guess: Superposition of Atomic Densities via on-the-fly atomic UHF (no occupation information).

   -------------------------
    Irrep   Nso     Nmo    
   -------------------------
     A        247     247 
   -------------------------
    Total     247     247
   -------------------------

  ==> Iterations <==

                           Total Energy        Delta E     RMS |[F,P]|

   @DF-RHF iter SAD:  -459.87337890024401   -4.59873e+02   0.00000e+00 
   @DF-RHF iter   1:  -460.08522513427488   -2.11846e-01   8.93068e-04 ADIIS/DIIS
   @DF-RHF iter   2:  -460.10550271559259   -2.02776e-02   3.75046e-04 ADIIS/DIIS
   @DF-RHF iter   3:  -460.10837412936070   -2.87141e-03   6.56842e-05 DIIS
   @DF-RHF iter   4:  -460.10872789039428   -3.53761e-04   2.08941e-05 DIIS
   @DF-RHF iter   5:  -460.10877286211024   -4.49717e-05   3.58712e-06 DIIS
   @DF-RHF iter   6:  -460.10877395917913   -1.09707e-06   7.82499e-07 DIIS
   @DF-RHF iter   7:  -460.10877398127354   -2.20944e-08   1.66531e-07 DIIS
   @DF-RHF iter   8:  -460.10877398312442   -1.85088e-09   3.26124e-08 DIIS
   @DF-RHF iter   9:  -460.10877398319849   -7.40670e-11   4.85790e-09 DIIS
  Energy and wave function converged.


  ==> Post-Iterations <==

    Orbital Energies [Eh]
    ---------------------

    Doubly Occupied:                                                      

       1A   -104.851901     2A    -10.575644     3A     -8.042757  
       4A     -8.041121     5A     -8.041121     6A     -1.104757  
       7A     -0.610978     8A     -0.475087     9A     -0.475087  

    Virtual:                                                              

      10A      0.054626    11A      0.110466    12A      0.141114  
      13A      0.141114    14A      0.221345    15A      0.250836  
      16A      0.281928    17A      0.281928    18A      0.301308  
      19A      0.319903    20A      0.319903    21A      0.331874  
      22A      0.434524    23A      0.434524    24A      0.495457  
      25A      0.495457    26A      0.509067    27A      0.532661  
      28A      0.532662    29A      0.599724    30A      0.663772  
      31A      0.663772    32A      0.671816    33A      0.812167  
      34A      0.812167    35A      0.874927    36A      0.899203  
      37A      0.948080    38A      0.950719    39A      0.950720  
      40A      1.011736    41A      1.062914    42A      1.067474  
      43A      1.067474    44A      1.117772    45A      1.117774  
      46A      1.158580    47A      1.289568    48A      1.289568  
      49A      1.306329    50A      1.321003    51A      1.366395  
      52A      1.366396    53A      1.388349    54A      1.388349  
      55A      1.417476    56A      1.417476    57A      1.448383  
      58A      1.452383    59A      1.452384    60A      1.509652  
      61A      1.509652    62A      1.540993    63A      1.561791  
      64A      1.561791    65A      1.762559    66A      1.762559  
      67A      2.010448    68A      2.077719    69A      2.121568  
      70A      2.121571    71A      2.256322    72A      2.305230  
      73A      2.305230    74A      2.450955    75A      2.450956  
      76A      2.457279    77A      2.457279    78A      2.477111  
      79A      2.534146    80A      2.534148    81A      2.547472  
      82A      2.577017    83A      2.663318    84A      2.663319  
      85A      2.689029    86A      2.805035    87A      2.805037  
      88A      2.810140    89A      2.831182    90A      2.831184  
      91A      2.894000    92A      2.923457    93A      2.923457  
      94A      2.944935    95A      2.944938    96A      3.084269  
      97A      3.150986    98A      3.150986    99A      3.168894  
     100A      3.251277   101A      3.312405   102A      3.440892  
     103A      3.442465   104A      3.442470   105A      3.577091  
     106A      3.577091   107A      3.655057   108A      3.655057  
     109A      3.733972   110A      3.740339   111A      3.740341  
     112A      3.853566   113A      3.927761   114A      3.927769  
     115A      3.928391   116A      3.928391   117A      3.962000  
     118A      3.962000   119A      4.048674   120A      4.048674  
     121A      4.153554   122A      4.198552   123A      4.263841  
     124A      4.263841   125A      4.313835   126A      4.313835  
     127A      4.333050   128A      4.333051   129A      4.349792  
     130A      4.349792   131A      4.388030   132A      4.422169  
     133A      4.552756   134A      4.552771   135A      4.790520  
     136A      4.861126   137A      4.861126   138A      4.967556  
     139A      5.062335   140A      5.062343   141A      5.384363  
     142A      6.016069   143A      6.016091   144A      6.088977  
     145A      6.088977   146A      6.428009   147A      6.428014  
     148A      6.466352   149A      6.466355   150A      6.535617  
     151A      6.566435   152A      6.642367   153A      6.642367  
     154A      6.763113   155A      6.763117   156A      6.809889  
     157A      7.130780   158A      7.130787   159A      7.281821  
     160A      7.281821   161A      7.305855   162A      7.363199  
     163A      7.363206   164A      7.385196   165A      7.422232  
     166A      7.652172   167A      7.770169   168A      7.770169  
     169A      7.914604   170A      8.131695   171A      8.136365  
     172A      8.136371   173A      8.210414   174A      8.210414  
     175A      8.222272   176A      8.320916   177A      8.372692  
     178A      8.372692   179A      8.445535   180A      8.445545  
     181A      8.577439   182A      8.577442   183A      8.742332  
     184A      8.742341   185A      8.750535   186A      8.750536  
     187A      8.765726   188A      8.788163   189A      8.868668  
     190A      8.930704   191A      8.930705   192A      8.945059  
     193A      8.983867   194A      8.983874   195A      9.003528  
     196A      9.104356   197A      9.125567   198A      9.321859  
     199A      9.321864   200A      9.490056   201A      9.490858  
     202A      9.695544   203A      9.695569   204A      9.921286  
     205A     10.079819   206A     10.079839   207A     10.161857  
     208A     10.161870   209A     10.258162   210A     10.421047  
     211A     10.701142   212A     10.701149   213A     10.986598  
     214A     10.986615   215A     11.207915   216A     11.274238  
     217A     11.274238   218A     11.296406   219A     11.356667  
     220A     11.356667   221A     11.765638   222A     11.765658  
     223A     11.946360   224A     12.360087   225A     12.360145  
     226A     12.767434   227A     13.696517   228A     13.856755  
     229A     13.856782   230A     14.118205   231A     14.290099  
     232A     14.290128   233A     14.522707   234A     14.570130  
     235A     14.570156   236A     15.963715   237A     18.167018  
     238A     18.167034   239A     25.502233   240A     29.733485  
     241A     43.272802   242A     43.272802   243A     43.415571  
     244A     70.251166   245A    100.148459   246A    318.583329  
     247A    530.339606  

    Final Occupation by Irrep:
              A 
    DOCC [     9 ]
    NA   [     9 ]
    NB   [     9 ]

  @DF-RHF Final Energy:  -460.10877398319849

   => Energetics <=

    Nuclear Repulsion Energy =              6.6967004737335785
    One-Electron Energy =                -649.1740443249358350
    Two-Electron Energy =                 182.3685698680037603
    Total Energy =                       -460.1087739831984891

Computation Completed


Properties will be evaluated at   0.000000,   0.000000,   0.000000 [a0]

Properties computed using the SCF density matrix


 Multipole Moments:

 ------------------------------------------------------------------------------------
     Multipole            Electronic (a.u.)      Nuclear  (a.u.)        Total (a.u.)
 ------------------------------------------------------------------------------------

 L = 1.  Multiply by 2.5417464519 to convert [e a0] to [Debye]
 Dipole X            :          0.0000963           -0.0000963            0.0000000
 Dipole Y            :        -51.8403066           51.3331428           -0.5071638
 Dipole Z            :          0.0000000            0.0000000            0.0000000
 Magnitude           :                                                    0.5071638

 ------------------------------------------------------------------------------------

*** tstop() called on cmpsrv002 at Thu Sep 19 14:20:01 2024
Module time:
	user time   =       9.77 seconds =       0.16 minutes
	system time =       0.60 seconds =       0.01 minutes
	total time  =         76 seconds =       1.27 minutes
Total time:
	user time   =      20.85 seconds =       0.35 minutes
	system time =       2.14 seconds =       0.04 minutes
	total time  =        232 seconds =       3.87 minutes
   => Libint2 <=

    Primary   basis highest AM E, G, H:  6, 6, 3
    Auxiliary basis highest AM E, G, H:  7, 7, 4
    Onebody   basis highest AM E, G, H:  -, -, -
    Solid Harmonics ordering:            Gaussian

*** tstart() called on cmpsrv002
*** at Thu Sep 19 14:20:01 2024

   => Loading Basis Set <=

    Name: THIS_BASIS
    Role: ORBITAL
    Keyword: BASIS
    atoms 1, 4-6 entry H          line    15 file /home/vance/anaconda3/envs/p4env/share/psi4/basis/def2-qzvp.gbs 
    atoms 2      entry CL         line   809 file /home/vance/anaconda3/envs/p4env/share/psi4/basis/def2-qzvp.gbs 
    atoms 3      entry N          line   242 file /home/vance/anaconda3/envs/p4env/share/psi4/basis/def2-qzvp.gbs 


         ---------------------------------------------------------
                       SAPT(DFT): delta HF Monomer B               
         ---------------------------------------------------------
                                   SCF
               by Justin Turney, Rob Parrish, Andy Simmonett
                          and Daniel G. A. Smith
                              RHF Reference
                        4 Threads,   7629 MiB Core
         ---------------------------------------------------------

  ==> Geometry <==

    Molecular point group: c1
    Full point group: Cs

    Geometry (in Angstrom), charge = 0, multiplicity = 1:

       Center              X                  Y                   Z               Mass       
    ------------   -----------------  -----------------  -----------------  -----------------
      Gh(H)          -0.000002832073     0.240409962352     0.000000000000     1.007825032230
      Gh(CL)         -0.000002832073     1.583759962352     0.000000000000    34.968852682000
         N            0.000007167927    -3.203180037648     0.000000000000    14.003074004430
         H           -0.473182832073    -3.562190037648     0.819580000000     1.007825032230
         H           -0.473182832073    -3.562190037648    -0.819580000000     1.007825032230
         H            0.946367167927    -3.562190037648     0.000000000000     1.007825032230

  Running in c1 symmetry.

  Rotational constants: A =      6.22544  B =      0.06217  C =      0.06217 [cm^-1]
  Rotational constants: A = 186633.95024  B =   1863.72225  C =   1863.72220 [MHz]
  Nuclear repulsion =   11.947542838758137

  Charge       = 0
  Multiplicity = 1
  Electrons    = 10
  Nalpha       = 5
  Nbeta        = 5

  ==> Algorithm <==

  SCF Algorithm Type is DF.
  DIIS enabled.
  MOM disabled.
  Fractional occupation disabled.
  Guess Type is SAD.
  Energy threshold   = 1.00e-08
  Density threshold  = 1.00e-08
  Integral threshold = 1.00e-12

  ==> Primary Basis <==

  Basis Set: THIS_BASIS
    Blend: DEF2-QZVP
    Number of shells: 79
    Number of basis functions: 247
    Number of Cartesian functions: 298
    Spherical Harmonics?: true
    Max angular momentum: 4

   => Loading Basis Set <=

    Name: (THIS_BASIS AUX)
    Role: JKFIT
    Keyword: DF_BASIS_SCF
    atoms 1, 4-6 entry H          line    18 file /home/vance/anaconda3/envs/p4env/share/psi4/basis/def2-universal-jkfit.gbs 
    atoms 2      entry CL         line   986 file /home/vance/anaconda3/envs/p4env/share/psi4/basis/def2-universal-jkfit.gbs 
    atoms 3      entry N          line   258 file /home/vance/anaconda3/envs/p4env/share/psi4/basis/def2-universal-jkfit.gbs 

  ==> Integral Setup <==

  ==> DiskDFJK: Density-Fitted J/K Matrices <==

    J tasked:                  Yes
    K tasked:                  Yes
    wK tasked:                  No
    OpenMP threads:              4
    Integrals threads:           4
    Memory [MiB]:             5722
    Algorithm:                Core
    Integral Cache:           SAVE
    Schwarz Cutoff:          1E-12
    Fitting Condition:       1E-10

   => Auxiliary Basis Set <=

  Basis Set: (THIS_BASIS AUX)
    Blend: DEF2-UNIVERSAL-JKFIT
    Number of shells: 87
    Number of basis functions: 277
    Number of Cartesian functions: 328
    Spherical Harmonics?: true
    Max angular momentum: 4

  Minimum eigenvalue in the overlap matrix is 1.6993672697E-04.
  Reciprocal condition number of the overlap matrix is 2.1320336528E-05.
    Using symmetric orthogonalization.

  ==> Pre-Iterations <==

  SCF Guess: Superposition of Atomic Densities via on-the-fly atomic UHF (no occupation information).

   -------------------------
    Irrep   Nso     Nmo    
   -------------------------
     A        247     247 
   -------------------------
    Total     247     247
   -------------------------

  ==> Iterations <==

                           Total Energy        Delta E     RMS |[F,P]|

   @DF-RHF iter SAD:   -55.65240142487580   -5.56524e+01   0.00000e+00 
   @DF-RHF iter   1:   -56.12990516920002   -4.77504e-01   1.85979e-03 ADIIS/DIIS
   @DF-RHF iter   2:   -56.19697573416132   -6.70706e-02   1.07105e-03 ADIIS/DIIS
   @DF-RHF iter   3:   -56.22376523219918   -2.67895e-02   9.94930e-05 DIIS
   @DF-RHF iter   4:   -56.22439382982972   -6.28598e-04   1.84611e-05 DIIS
   @DF-RHF iter   5:   -56.22441413542984   -2.03056e-05   3.41671e-06 DIIS
   @DF-RHF iter   6:   -56.22441530000999   -1.16458e-06   8.50253e-07 DIIS
   @DF-RHF iter   7:   -56.22441537735996   -7.73500e-08   1.89901e-07 DIIS
   @DF-RHF iter   8:   -56.22441538149393   -4.13397e-09   2.93488e-08 DIIS
   @DF-RHF iter   9:   -56.22441538159142   -9.74936e-11   8.39473e-09 DIIS
  Energy and wave function converged.


  ==> Post-Iterations <==

    Orbital Energies [Eh]
    ---------------------

    Doubly Occupied:                                                      

       1A    -15.538476     2A     -1.139155     3A     -0.630431  
       4A     -0.630426     5A     -0.425089  

    Virtual:                                                              

       6A      0.094717     7A      0.117735     8A      0.158135  
       9A      0.158135    10A      0.200307    11A      0.205822  
      12A      0.205822    13A      0.314992    14A      0.318970  
      15A      0.318971    16A      0.363106    17A      0.492269  
      18A      0.513859    19A      0.522350    20A      0.522353  
      21A      0.555401    22A      0.555402    23A      0.573919  
      24A      0.705214    25A      0.705214    26A      0.749747  
      27A      0.749747    28A      0.760593    29A      0.760593  
      30A      0.761550    31A      0.864421    32A      0.864422  
      33A      0.868929    34A      0.869844    35A      0.907258  
      36A      1.011344    37A      1.013828    38A      1.013828  
      39A      1.025277    40A      1.025278    41A      1.078251  
      42A      1.078255    43A      1.111375    44A      1.216925  
      45A      1.287705    46A      1.287707    47A      1.291147  
      48A      1.393905    49A      1.431509    50A      1.431510  
      51A      1.520963    52A      1.672068    53A      1.772206  
      54A      1.772206    55A      1.803017    56A      1.803017  
      57A      1.837680    58A      1.837681    59A      2.014614  
      60A      2.014614    61A      2.074282    62A      2.096327  
      63A      2.096327    64A      2.196540    65A      2.308958  
      66A      2.308959    67A      2.334080    68A      2.344592  
      69A      2.390712    70A      2.390712    71A      2.396578  
      72A      2.428731    73A      2.428731    74A      2.478498  
      75A      2.478502    76A      2.479486    77A      2.520677  
      78A      2.520677    79A      2.521562    80A      2.521564  
      81A      2.596429    82A      2.596438    83A      2.599418  
      84A      2.630614    85A      2.630617    86A      2.774221  
      87A      2.823113    88A      2.823117    89A      2.833721  
      90A      2.848989    91A      2.848990    92A      2.883208  
      93A      3.035127    94A      3.056148    95A      3.056150  
      96A      3.196273    97A      3.196279    98A      3.241424  
      99A      3.248315   100A      3.327871   101A      3.327871  
     102A      3.439046   103A      3.532851   104A      3.532853  
     105A      3.610066   106A      3.809306   107A      3.956507  
     108A      3.956521   109A      3.959049   110A      4.176767  
     111A      4.361559   112A      4.361575   113A      4.535833  
     114A      4.535833   115A      4.552019   116A      4.557944  
     117A      4.557944   118A      4.631652   119A      4.631664  
     120A      4.693093   121A      4.693093   122A      5.058956  
     123A      5.190147   124A      5.325497   125A      5.325497  
     126A      5.420137   127A      5.420157   128A      5.480157  
     129A      5.480157   130A      5.738195   131A      5.782993  
     132A      5.782993   133A      5.823486   134A      5.823486  
     135A      5.833122   136A      5.833122   137A      6.146777  
     138A      6.146778   139A      6.147596   140A      6.243210  
     141A      6.264035   142A      6.264037   143A      6.279631  
     144A      6.334769   145A      6.371337   146A      6.371337  
     147A      6.397989   148A      6.397989   149A      6.404360  
     150A      6.404360   151A      6.587590   152A      6.587590  
     153A      6.713571   154A      6.798675   155A      6.904382  
     156A      6.921368   157A      6.921370   158A      7.078215  
     159A      7.078215   160A      7.110646   161A      7.110651  
     162A      7.272709   163A      7.333546   164A      7.333574  
     165A      7.534125   166A      7.588694   167A      7.588698  
     168A      7.598879   169A      7.691255   170A      7.691257  
     171A      7.785658   172A      7.901997   173A      7.970091  
     174A      7.970092   175A      8.046251   176A      8.046251  
     177A      8.125301   178A      8.135776   179A      8.135777  
     180A      8.284211   181A      8.284577   182A      8.284584  
     183A      8.324937   184A      8.345896   185A      8.369402  
     186A      8.369409   187A      8.512113   188A      8.667957  
     189A      8.686828   190A      8.686841   191A      8.772116  
     192A      8.807502   193A      8.807502   194A      8.857624  
     195A      8.884056   196A      8.884071   197A      8.927589  
     198A      9.041039   199A      9.041040   200A      9.200609  
     201A      9.200609   202A      9.448236   203A      9.448236  
     204A      9.448702   205A      9.546376   206A      9.546388  
     207A      9.849387   208A      9.849395   209A      9.992712  
     210A     10.019862   211A     10.118534   212A     10.118541  
     213A     10.310160   214A     10.529164   215A     10.540730  
     216A     10.540732   217A     11.574999   218A     11.696670  
     219A     11.696691   220A     12.049233   221A     12.088616  
     222A     12.117421   223A     12.117439   224A     12.307774  
     225A     12.307830   226A     12.473078   227A     14.828275  
     228A     14.828277   229A     15.349214   230A     15.695896  
     231A     21.700636   232A     21.700636   233A     21.728660  
     234A     21.728660   235A     21.823123   236A     21.823123  
     237A     21.931951   238A     22.470288   239A     35.638202  
     240A     39.374676   241A     85.486335   242A    118.186093  
     243A    118.186093   244A    118.223664   245A    200.469991  
     246A    233.961113   247A   1051.646105  

    Final Occupation by Irrep:
              A 
    DOCC [     5 ]
    NA   [     5 ]
    NB   [     5 ]

  @DF-RHF Final Energy:   -56.22441538159142

   => Energetics <=

    Nuclear Repulsion Energy =             11.9475428387581371
    One-Electron Energy =                 -99.6167603177009369
    Two-Electron Energy =                  31.4448020973513778
    Total Energy =                        -56.2244153815914203

Computation Completed


Properties will be evaluated at   0.000000,   0.000000,   0.000000 [a0]

Properties computed using the SCF density matrix


 Multipole Moments:

 ------------------------------------------------------------------------------------
     Multipole            Electronic (a.u.)      Nuclear  (a.u.)        Total (a.u.)
 ------------------------------------------------------------------------------------

 L = 1.  Multiply by 2.5417464519 to convert [e a0] to [Debye]
 Dipole X            :         -0.0001022            0.0000977           -0.0000045
 Dipole Y            :         61.9495578          -62.5666217           -0.6170639
 Dipole Z            :         -0.0000000            0.0000000           -0.0000000
 Magnitude           :                                                    0.6170639

 ------------------------------------------------------------------------------------

*** tstop() called on cmpsrv002 at Thu Sep 19 14:20:53 2024
Module time:
	user time   =       8.93 seconds =       0.15 minutes
	system time =       0.74 seconds =       0.01 minutes
	total time  =         52 seconds =       0.87 minutes
Total time:
	user time   =      29.79 seconds =       0.50 minutes
	system time =       2.88 seconds =       0.05 minutes
	total time  =        284 seconds =       4.73 minutes

         ---------------------------------------------------------
                        SAPT(DFT): delta HF Segment                

                   by Daniel G. A. Smith and Rob Parrish           
         ---------------------------------------------------------


  ==> Preparing SAPT Data Cache <== 

  ==> DiskDFJK: Density-Fitted J/K Matrices <==

    J tasked:                  Yes
    K tasked:                  Yes
    wK tasked:                  No
    OpenMP threads:              4
    Integrals threads:           4
    Memory [MiB]:             5722
    Algorithm:                Core
    Integral Cache:           SAVE
    Schwarz Cutoff:          1E-12
    Fitting Condition:       1E-10

   => Auxiliary Basis Set <=

  Basis Set: (THIS_BASIS AUX)
    Blend: DEF2-UNIVERSAL-JKFIT
    Number of shells: 87
    Number of basis functions: 277
    Number of Cartesian functions: 328
    Spherical Harmonics?: true
    Max angular momentum: 4


  ==> E10 Electostatics <== 

    Elst10,r                         -3.26046135 [mEh]

  ==> E10 Exchange <== 

    Exch10(S^2)                       0.17838029 [mEh]
    Exch10                            0.17842362 [mEh]

  ==> E20 Induction <== 

   => Uncoupled Induction <= 

    Ind20,u (A<-B)                   -0.10399823 [mEh]
    Ind20,u (A->B)                   -0.10463591 [mEh]
    Ind20,u                          -0.20863414 [mEh]
    Exch-Ind20,u (A<-B)               0.00196977 [mEh]
    Exch-Ind20,u (A->B)               0.02631965 [mEh]
    Exch-Ind20,u                      0.02828942 [mEh]
    Exch-Ind20,u (A<-B) (S^inf)       0.00196930 [mEh]
    Exch-Ind20,u (A->B) (S^inf)       0.02633723 [mEh]
    Exch-Ind20,u (S^inf)              0.02830652 [mEh]

   => Coupled Induction <= 

   ---------------------------------------------------
              SAPT Coupled Induction Solver           
   ---------------------------------------------------
    Maxiter             =          20
    Convergence         =   1.000E-06
   ---------------------------------------------------
     Iter       (A<-B)           (B->A)      Time [s]
   ---------------------------------------------------
    Guess    4.046129e-01     2.311111e-01          0
        1    1.668162e-01     1.284055e-01          0
        2    2.804184e-02     2.993212e-02          0
        3    1.091599e-02     7.853940e-03          0
        4    1.969830e-03     1.249523e-03          0
        5    5.991578e-04     2.238982e-04          0
        6    1.015744e-04     4.790134e-05          0
        7    1.000757e-05     9.834201e-06          0
        8    1.736918e-06     1.182615e-06          0
        9    2.018552e-07*    9.787202e-08*         1
   ---------------------------------------------------

    Ind20,r (A<-B)                   -0.11748835 [mEh]
    Ind20,r (A->B)                   -0.13593527 [mEh]
    Ind20,r                          -0.25342362 [mEh]
    Exch-Ind20,r (A<-B)               0.00182196 [mEh]
    Exch-Ind20,r (A->B)               0.03432643 [mEh]
    Exch-Ind20,r                      0.03614839 [mEh]
    Exch-Ind20,r (A<-B) (S^inf)       0.00182077 [mEh]
    Exch-Ind20,r (A->B) (S^inf)       0.03434966 [mEh]
    Exch-Ind20,r (S^inf)              0.03617043 [mEh]

   Partial SAPT(HF) Results, to compute Delta HF (dHF)
  ---------------------------------------------------------------------------------------------------------
    Electrostatics                   -3.26046135 [mEh]     -2.04597039 [kcal/mol]     -8.56034010 [kJ/mol]
      Elst10,r                       -3.26046135 [mEh]     -2.04597039 [kcal/mol]     -8.56034010 [kJ/mol]

    Exchange                          0.17842362 [mEh]      0.11196251 [kcal/mol]      0.46845115 [kJ/mol]
      Exch10                          0.17842362 [mEh]      0.11196251 [kcal/mol]      0.46845115 [kJ/mol]
      Exch10(S^2)                     0.17838029 [mEh]      0.11193532 [kcal/mol]      0.46833739 [kJ/mol]

    Induction (no dHF)               -0.21727523 [mEh]     -0.13634227 [kcal/mol]     -0.57045605 [kJ/mol]
      Ind20,r                        -0.25342362 [mEh]     -0.15902573 [kcal/mol]     -0.66536363 [kJ/mol]
      Exch-Ind20,r                    0.03614839 [mEh]      0.02268346 [kcal/mol]      0.09490759 [kJ/mol]
      Induction (A<-B) (no dHF)      -0.11566639 [mEh]     -0.07258176 [kcal/mol]     -0.30368207 [kJ/mol]
      Induction (A->B) (no dHF)      -0.10160884 [mEh]     -0.06376051 [kcal/mol]     -0.26677397 [kJ/mol]

    Subtotal SAPT(HF)                -3.29931297 [mEh]     -2.07035014 [kcal/mol]     -8.66234500 [kJ/mol]
    Total HF                         -3.34840436 [mEh]     -2.10115546 [kcal/mol]     -8.79123443 [kJ/mol]
    Delta HF                         -0.04909139 [mEh]     -0.03080531 [kcal/mol]     -0.12888943 [kJ/mol]
  ---------------------------------------------------------------------------------------------------------
   Partial SAPT(HF) Results, alternate SAPT0-like display
  ---------------------------------------------------------------------------------------------------------
    Induction                        -0.26636662 [mEh]     -0.16714758 [kcal/mol]     -0.69934548 [kJ/mol]
      Ind20,r                        -0.25342362 [mEh]     -0.15902573 [kcal/mol]     -0.66536363 [kJ/mol]
      Exch-Ind20,r                    0.03614839 [mEh]      0.02268346 [kcal/mol]      0.09490759 [kJ/mol]
      delta HF,r (2)                 -0.04909139 [mEh]     -0.03080531 [kcal/mol]     -0.12888943 [kJ/mol]
      Induction (A<-B)               -0.14180018 [mEh]     -0.08898095 [kcal/mol]     -0.37229631 [kJ/mol]
      Induction (A->B)               -0.12456645 [mEh]     -0.07816663 [kcal/mol]     -0.32704916 [kJ/mol]
  ---------------------------------------------------------------------------------------------------------
   => Libint2 <=

    Primary   basis highest AM E, G, H:  6, 6, 3
    Auxiliary basis highest AM E, G, H:  7, 7, 4
    Onebody   basis highest AM E, G, H:  -, -, -
    Solid Harmonics ordering:            Gaussian

*** tstart() called on cmpsrv002
*** at Thu Sep 19 14:20:56 2024

   => Loading Basis Set <=

    Name: THIS_BASIS
    Role: ORBITAL
    Keyword: BASIS
    atoms 1, 4-6 entry H          line    15 file /home/vance/anaconda3/envs/p4env/share/psi4/basis/def2-qzvp.gbs 
    atoms 2      entry CL         line   809 file /home/vance/anaconda3/envs/p4env/share/psi4/basis/def2-qzvp.gbs 
    atoms 3      entry N          line   242 file /home/vance/anaconda3/envs/p4env/share/psi4/basis/def2-qzvp.gbs 


         ---------------------------------------------------------
                          SAPT(DFT): DFT Monomer A                 
         ---------------------------------------------------------
                                   SCF
               by Justin Turney, Rob Parrish, Andy Simmonett
                          and Daniel G. A. Smith
                              RKS Reference
                        4 Threads,   7629 MiB Core
         ---------------------------------------------------------

  ==> Geometry <==

    Molecular point group: c1
    Full point group: Cs

    Geometry (in Angstrom), charge = 0, multiplicity = 1:

       Center              X                  Y                   Z               Mass       
    ------------   -----------------  -----------------  -----------------  -----------------
         H           -0.000002832073     0.240409962352     0.000000000000     1.007825032230
         CL          -0.000002832073     1.583759962352     0.000000000000    34.968852682000
      Gh(N)           0.000007167927    -3.203180037648     0.000000000000    14.003074004430
      Gh(H)          -0.473182832073    -3.562190037648     0.819580000000     1.007825032230
      Gh(H)          -0.473182832073    -3.562190037648    -0.819580000000     1.007825032230
      Gh(H)           0.946367167927    -3.562190037648     0.000000000000     1.007825032230

  Running in c1 symmetry.

  Rotational constants: A =      6.22544  B =      0.06217  C =      0.06217 [cm^-1]
  Rotational constants: A = 186633.95024  B =   1863.72225  C =   1863.72220 [MHz]
  Nuclear repulsion =    6.696700473733578

  Charge       = 0
  Multiplicity = 1
  Electrons    = 18
  Nalpha       = 9
  Nbeta        = 9

  ==> Algorithm <==

  SCF Algorithm Type is DF.
  DIIS enabled.
  MOM disabled.
  Fractional occupation disabled.
  Guess Type is SAD.
  Energy threshold   = 1.00e-08
  Density threshold  = 1.00e-08
  Integral threshold = 1.00e-12

  ==> Primary Basis <==

  Basis Set: THIS_BASIS
    Blend: DEF2-QZVP
    Number of shells: 79
    Number of basis functions: 247
    Number of Cartesian functions: 298
    Spherical Harmonics?: true
    Max angular momentum: 4

  ==> DFT Potential <==

   => LibXC <=

    Version 6.2.2
    S. Lehtola, C. Steigemann, M. J.T. Oliveira, and M. A.L. Marques.,  SoftwareX 7, 15 (2018) (10.1016/j.softx.2017.11.002)

   => Composite Functional: PBE0 <= 

    PBE0 Hyb-GGA Exchange-Correlation Functional

    C. Adamo and V. Barone.,  J. Chem. Phys. 110, 6158 (1999) (10.1063/1.478522)
    M. Ernzerhof and G. E. Scuseria.,  J. Chem. Phys. 110, 5029 (1999) (10.1063/1.478401)

    Deriv               =              1
    GGA                 =           TRUE
    Meta                =          FALSE

    Exchange Hybrid     =           TRUE
    MP2 Hybrid          =          FALSE

   => Exchange Functionals <=

    0.7500   Perdew, Burke & Ernzerhof

   => Exact (HF) Exchange <=

    0.2500               HF 

   => Correlation Functionals <=

    1.0000   Perdew, Burke & Ernzerhof

   => LibXC Density Thresholds  <==

    XC_HYB_GGA_XC_PBEH:  1.00E-15 

   => Asymptotic Correction <=

    X Functional        =    XC_GGA_X_LB
    C Functional        =   XC_LDA_C_VWN
    Bulk Shift          =       0.116251
    GRAC Alpha          =       0.500000
    GRAC Beta           =      40.000000

   => Molecular Quadrature <=

    Radial Scheme          =       TREUTLER
    Pruning Scheme         =           NONE
    Nuclear Scheme         =       TREUTLER

    Blocking Scheme        =         OCTREE
    BS radius alpha        =              1
    Pruning alpha          =              1
    Radial Points          =             75
    Spherical Points       =            302
    Total Points           =         131211
    Total Blocks           =           1059
    Max Points             =            256
    Max Functions          =            231
    Weights Tolerance      =       1.00E-15

   => Loading Basis Set <=

    Name: (THIS_BASIS AUX)
    Role: JKFIT
    Keyword: DF_BASIS_SCF
    atoms 1, 4-6 entry H          line    18 file /home/vance/anaconda3/envs/p4env/share/psi4/basis/def2-universal-jkfit.gbs 
    atoms 2      entry CL         line   986 file /home/vance/anaconda3/envs/p4env/share/psi4/basis/def2-universal-jkfit.gbs 
    atoms 3      entry N          line   258 file /home/vance/anaconda3/envs/p4env/share/psi4/basis/def2-universal-jkfit.gbs 

  ==> Integral Setup <==

  ==> DiskDFJK: Density-Fitted J/K Matrices <==

    J tasked:                  Yes
    K tasked:                  Yes
    wK tasked:                  No
    OpenMP threads:              4
    Integrals threads:           4
    Memory [MiB]:             5128
    Algorithm:                Core
    Integral Cache:           SAVE
    Schwarz Cutoff:          1E-12
    Fitting Condition:       1E-10

   => Auxiliary Basis Set <=

  Basis Set: (THIS_BASIS AUX)
    Blend: DEF2-UNIVERSAL-JKFIT
    Number of shells: 87
    Number of basis functions: 277
    Number of Cartesian functions: 328
    Spherical Harmonics?: true
    Max angular momentum: 4

  Cached 100.0% of DFT collocation blocks in 0.580 [GiB].

  Minimum eigenvalue in the overlap matrix is 1.6993672697E-04.
  Reciprocal condition number of the overlap matrix is 2.1320336528E-05.
    Using symmetric orthogonalization.

  ==> Pre-Iterations <==

  SCF Guess: Superposition of Atomic Densities via on-the-fly atomic UHF (no occupation information).

   -------------------------
    Irrep   Nso     Nmo    
   -------------------------
     A        247     247 
   -------------------------
    Total     247     247
   -------------------------

  ==> Iterations <==

                           Total Energy        Delta E     RMS |[F,P]|

   @DF-RKS iter SAD:  -460.52655559623594   -4.60527e+02   0.00000e+00 
   @DF-RKS iter   1:  -460.65196283891123   -1.25407e-01   1.20682e-03 ADIIS/DIIS
   @DF-RKS iter   2:  -460.65630678150524   -4.34394e-03   1.00235e-03 ADIIS/DIIS
   @DF-RKS iter   3:  -460.67714831772406   -2.08415e-02   9.11580e-05 DIIS
   @DF-RKS iter   4:  -460.67740277006084   -2.54452e-04   1.84699e-05 DIIS
   @DF-RKS iter   5:  -460.67741240178702   -9.63173e-06   2.55478e-06 DIIS
   @DF-RKS iter   6:  -460.67741210660574    2.95181e-07   1.26352e-07 DIIS
   @DF-RKS iter   7:  -460.67741210617231    4.33431e-10   7.54500e-09 DIIS
  Energy and wave function converged.


  ==> Post-Iterations <==

   Electrons on quadrature grid:
      Ntotal   =   17.9999999427 ; deviation = -5.733e-08 

    Orbital Energies [Eh]
    ---------------------

    Doubly Occupied:                                                      

       1A   -101.839063     2A     -9.660234     3A     -7.394961  
       4A     -7.386615     5A     -7.386615     6A     -0.975472  
       7A     -0.595331     8A     -0.462693     9A     -0.462693  

    Virtual:                                                              

      10A     -0.129599    11A     -0.013205    12A      0.025988  
      13A      0.066866    14A      0.069442    15A      0.069453  
      16A      0.092879    17A      0.092891    18A      0.146264  
      19A      0.157338    20A      0.157339    21A      0.214816  
      22A      0.214816    23A      0.238907    24A      0.238911  
      25A      0.250967    26A      0.341357    27A      0.379647  
      28A      0.447580    29A      0.447750    30A      0.503799  
      31A      0.551617    32A      0.551620    33A      0.582427  
      34A      0.582704    35A      0.743314    36A      0.777806  
      37A      0.818758    38A      0.859065    39A      0.859205  
      40A      0.871121    41A      0.886609    42A      0.943623  
      43A      0.969963    44A      0.969963    45A      0.983387  
      46A      0.983401    47A      1.017502    48A      1.017503  
      49A      1.019144    50A      1.035920    51A      1.035920  
      52A      1.045228    53A      1.045516    54A      1.138170  
      55A      1.159245    56A      1.159245    57A      1.208146  
      58A      1.208146    59A      1.223385    60A      1.277858  
      61A      1.277896    62A      1.359754    63A      1.364593  
      64A      1.364594    65A      1.415170    66A      1.415170  
      67A      1.730563    68A      1.929486    69A      1.966027  
      70A      1.966033    71A      2.035933    72A      2.036124  
      73A      2.100700    74A      2.100719    75A      2.162664  
      76A      2.215195    77A      2.373235    78A      2.373368  
      79A      2.405230    80A      2.453423    81A      2.453517  
      82A      2.462414    83A      2.470299    84A      2.561548  
      85A      2.561549    86A      2.585465    87A      2.585530  
      88A      2.609910    89A      2.721267    90A      2.721321  
      91A      2.754401    92A      2.754578    93A      2.767307  
      94A      2.804070    95A      2.870502    96A      2.870560  
      97A      3.006342    98A      3.071139    99A      3.071234  
     100A      3.091925   101A      3.091925   102A      3.145649  
     103A      3.177925   104A      3.177925   105A      3.224599  
     106A      3.268930   107A      3.362316   108A      3.362351  
     109A      3.366377   110A      3.454027   111A      3.454027  
     112A      3.484002   113A      3.484002   114A      3.577168  
     115A      3.577169   116A      3.652547   117A      3.652765  
     118A      3.695611   119A      3.749301   120A      3.749302  
     121A      3.771322   122A      3.805523   123A      3.805523  
     124A      3.831219   125A      3.831234   126A      3.850819  
     127A      3.850819   128A      3.851816   129A      3.851861  
     130A      4.067287   131A      4.305197   132A      4.308487  
     133A      4.344312   134A      4.390087   135A      4.390087  
     136A      4.470870   137A      4.470926   138A      4.471328  
     139A      4.986039   140A      4.986040   141A      5.300548  
     142A      5.676622   143A      5.676622   144A      5.933044  
     145A      5.933058   146A      6.200646   147A      6.200676  
     148A      6.316055   149A      6.348518   150A      6.348552  
     151A      6.387828   152A      6.387859   153A      6.460075  
     154A      6.486674   155A      6.685677   156A      6.685680  
     157A      6.814873   158A      6.814873   159A      6.887345  
     160A      7.055334   161A      7.055379   162A      7.242410  
     163A      7.282585   164A      7.282585   165A      7.344971  
     166A      7.577971   167A      7.688450   168A      7.688466  
     169A      7.762665   170A      7.762710   171A      7.830598  
     172A      7.884796   173A      7.884796   174A      8.048305  
     175A      8.059143   176A      8.059253   177A      8.135675  
     178A      8.236402   179A      8.303604   180A      8.303604  
     181A      8.351626   182A      8.362661   183A      8.362676  
     184A      8.492562   185A      8.492565   186A      8.645487  
     187A      8.656322   188A      8.656425   189A      8.683755  
     190A      8.706035   191A      8.788075   192A      8.848413  
     193A      8.848432   194A      8.897318   195A      8.897361  
     196A      8.918080   197A      9.023668   198A      9.236770  
     199A      9.236772   200A      9.398850   201A      9.406109  
     202A      9.607444   203A      9.607454   204A      9.836528  
     205A      9.863682   206A      9.993252   207A      9.993271  
     208A     10.076753   209A     10.076779   210A     10.166833  
     211A     10.517399   212A     10.517400   213A     10.602055  
     214A     10.602055   215A     10.617009   216A     10.617023  
     217A     10.903937   218A     10.903954   219A     11.124677  
     220A     11.208935   221A     11.219430   222A     11.679462  
     223A     11.679465   224A     12.272195   225A     12.272248  
     226A     12.682924   227A     13.613047   228A     13.770039  
     229A     13.770063   230A     14.030198   231A     14.204796  
     232A     14.204818   233A     14.431988   234A     14.487871  
     235A     14.487889   236A     15.879170   237A     18.084864  
     238A     18.084900   239A     25.418770   240A     28.664653  
     241A     41.694249   242A     41.694249   243A     41.837290  
     244A     70.173386   245A     98.230974   246A    318.500196  
     247A    525.579311  

    Final Occupation by Irrep:
              A 
    DOCC [     9 ]
    NA   [     9 ]
    NB   [     9 ]

  @DF-RKS Final Energy:  -460.67741210617231

   => Energetics <=

    Nuclear Repulsion Energy =              6.6967004737335785
    One-Electron Energy =                -649.3467872342798728
    Two-Electron Energy =                 203.4320418469409333
    DFT Exchange-Correlation Energy =     -21.4593671925670257
    Empirical Dispersion Energy =           0.0000000000000000
    VV10 Nonlocal Energy =                  0.0000000000000000
    Total Energy =                       -460.6774121061723690

Computation Completed


Properties will be evaluated at   0.000000,   0.000000,   0.000000 [a0]

Properties computed using the SCF density matrix


 Multipole Moments:

 ------------------------------------------------------------------------------------
     Multipole            Electronic (a.u.)      Nuclear  (a.u.)        Total (a.u.)
 ------------------------------------------------------------------------------------

 L = 1.  Multiply by 2.5417464519 to convert [e a0] to [Debye]
 Dipole X            :          0.0000963           -0.0000963           -0.0000001
 Dipole Y            :        -51.8150337           51.3331428           -0.4818909
 Dipole Z            :          0.0000000            0.0000000            0.0000000
 Magnitude           :                                                    0.4818909

 ------------------------------------------------------------------------------------

*** tstop() called on cmpsrv002 at Thu Sep 19 14:22:39 2024
Module time:
	user time   =      13.56 seconds =       0.23 minutes
	system time =       0.95 seconds =       0.02 minutes
	total time  =        103 seconds =       1.72 minutes
Total time:
	user time   =      50.08 seconds =       0.83 minutes
	system time =       3.99 seconds =       0.07 minutes
	total time  =        390 seconds =       6.50 minutes
   => Libint2 <=

    Primary   basis highest AM E, G, H:  6, 6, 3
    Auxiliary basis highest AM E, G, H:  7, 7, 4
    Onebody   basis highest AM E, G, H:  -, -, -
    Solid Harmonics ordering:            Gaussian

*** tstart() called on cmpsrv002
*** at Thu Sep 19 14:22:39 2024

   => Loading Basis Set <=

    Name: THIS_BASIS
    Role: ORBITAL
    Keyword: BASIS
    atoms 1, 4-6 entry H          line    15 file /home/vance/anaconda3/envs/p4env/share/psi4/basis/def2-qzvp.gbs 
    atoms 2      entry CL         line   809 file /home/vance/anaconda3/envs/p4env/share/psi4/basis/def2-qzvp.gbs 
    atoms 3      entry N          line   242 file /home/vance/anaconda3/envs/p4env/share/psi4/basis/def2-qzvp.gbs 


         ---------------------------------------------------------
                          SAPT(DFT): DFT Monomer B                 
         ---------------------------------------------------------
                                   SCF
               by Justin Turney, Rob Parrish, Andy Simmonett
                          and Daniel G. A. Smith
                              RKS Reference
                        4 Threads,   7629 MiB Core
         ---------------------------------------------------------

  ==> Geometry <==

    Molecular point group: c1
    Full point group: Cs

    Geometry (in Angstrom), charge = 0, multiplicity = 1:

       Center              X                  Y                   Z               Mass       
    ------------   -----------------  -----------------  -----------------  -----------------
      Gh(H)          -0.000002832073     0.240409962352     0.000000000000     1.007825032230
      Gh(CL)         -0.000002832073     1.583759962352     0.000000000000    34.968852682000
         N            0.000007167927    -3.203180037648     0.000000000000    14.003074004430
         H           -0.473182832073    -3.562190037648     0.819580000000     1.007825032230
         H           -0.473182832073    -3.562190037648    -0.819580000000     1.007825032230
         H            0.946367167927    -3.562190037648     0.000000000000     1.007825032230

  Running in c1 symmetry.

  Rotational constants: A =      6.22544  B =      0.06217  C =      0.06217 [cm^-1]
  Rotational constants: A = 186633.95024  B =   1863.72225  C =   1863.72220 [MHz]
  Nuclear repulsion =   11.947542838758137

  Charge       = 0
  Multiplicity = 1
  Electrons    = 10
  Nalpha       = 5
  Nbeta        = 5

  ==> Algorithm <==

  SCF Algorithm Type is DF.
  DIIS enabled.
  MOM disabled.
  Fractional occupation disabled.
  Guess Type is SAD.
  Energy threshold   = 1.00e-08
  Density threshold  = 1.00e-08
  Integral threshold = 1.00e-12

  ==> Primary Basis <==

  Basis Set: THIS_BASIS
    Blend: DEF2-QZVP
    Number of shells: 79
    Number of basis functions: 247
    Number of Cartesian functions: 298
    Spherical Harmonics?: true
    Max angular momentum: 4

  ==> DFT Potential <==

   => LibXC <=

    Version 6.2.2
    S. Lehtola, C. Steigemann, M. J.T. Oliveira, and M. A.L. Marques.,  SoftwareX 7, 15 (2018) (10.1016/j.softx.2017.11.002)

   => Composite Functional: PBE0 <= 

    PBE0 Hyb-GGA Exchange-Correlation Functional

    C. Adamo and V. Barone.,  J. Chem. Phys. 110, 6158 (1999) (10.1063/1.478522)
    M. Ernzerhof and G. E. Scuseria.,  J. Chem. Phys. 110, 5029 (1999) (10.1063/1.478401)

    Deriv               =              1
    GGA                 =           TRUE
    Meta                =          FALSE

    Exchange Hybrid     =           TRUE
    MP2 Hybrid          =          FALSE

   => Exchange Functionals <=

    0.7500   Perdew, Burke & Ernzerhof

   => Exact (HF) Exchange <=

    0.2500               HF 

   => Correlation Functionals <=

    1.0000   Perdew, Burke & Ernzerhof

   => LibXC Density Thresholds  <==

    XC_HYB_GGA_XC_PBEH:  1.00E-15 

   => Asymptotic Correction <=

    X Functional        =    XC_GGA_X_LB
    C Functional        =   XC_LDA_C_VWN
    Bulk Shift          =       0.113162
    GRAC Alpha          =       0.500000
    GRAC Beta           =      40.000000

   => Molecular Quadrature <=

    Radial Scheme          =       TREUTLER
    Pruning Scheme         =           NONE
    Nuclear Scheme         =       TREUTLER

    Blocking Scheme        =         OCTREE
    BS radius alpha        =              1
    Pruning alpha          =              1
    Radial Points          =             75
    Spherical Points       =            302
    Total Points           =         131211
    Total Blocks           =           1059
    Max Points             =            256
    Max Functions          =            231
    Weights Tolerance      =       1.00E-15

   => Loading Basis Set <=

    Name: (THIS_BASIS AUX)
    Role: JKFIT
    Keyword: DF_BASIS_SCF
    atoms 1, 4-6 entry H          line    18 file /home/vance/anaconda3/envs/p4env/share/psi4/basis/def2-universal-jkfit.gbs 
    atoms 2      entry CL         line   986 file /home/vance/anaconda3/envs/p4env/share/psi4/basis/def2-universal-jkfit.gbs 
    atoms 3      entry N          line   258 file /home/vance/anaconda3/envs/p4env/share/psi4/basis/def2-universal-jkfit.gbs 

  ==> Integral Setup <==

  ==> DiskDFJK: Density-Fitted J/K Matrices <==

    J tasked:                  Yes
    K tasked:                  Yes
    wK tasked:                  No
    OpenMP threads:              4
    Integrals threads:           4
    Memory [MiB]:             5128
    Algorithm:                Core
    Integral Cache:           SAVE
    Schwarz Cutoff:          1E-12
    Fitting Condition:       1E-10

   => Auxiliary Basis Set <=

  Basis Set: (THIS_BASIS AUX)
    Blend: DEF2-UNIVERSAL-JKFIT
    Number of shells: 87
    Number of basis functions: 277
    Number of Cartesian functions: 328
    Spherical Harmonics?: true
    Max angular momentum: 4

  Cached 100.0% of DFT collocation blocks in 0.580 [GiB].

  Minimum eigenvalue in the overlap matrix is 1.6993672697E-04.
  Reciprocal condition number of the overlap matrix is 2.1320336528E-05.
    Using symmetric orthogonalization.

  ==> Pre-Iterations <==

  SCF Guess: Superposition of Atomic Densities via on-the-fly atomic UHF (no occupation information).

   -------------------------
    Irrep   Nso     Nmo    
   -------------------------
     A        247     247 
   -------------------------
    Total     247     247
   -------------------------

  ==> Iterations <==

                           Total Energy        Delta E     RMS |[F,P]|

   @DF-RKS iter SAD:   -56.06961073817087   -5.60696e+01   0.00000e+00 
   @DF-RKS iter   1:   -56.28025615495765   -2.10645e-01   3.14614e-03 ADIIS/DIIS
   @DF-RKS iter   2:   -56.02932215826575    2.50934e-01   4.09778e-03 ADIIS/DIIS
   @DF-RKS iter   3:   -56.51875426746160   -4.89432e-01   2.12080e-04 ADIIS/DIIS
   @DF-RKS iter   4:   -56.52012175594525   -1.36749e-03   1.88621e-05 DIIS
   @DF-RKS iter   5:   -56.52012903302232   -7.27708e-06   4.93186e-06 DIIS
   @DF-RKS iter   6:   -56.52012916420169   -1.31179e-07   1.88959e-07 DIIS
   @DF-RKS iter   7:   -56.52012913809001    2.61117e-08   2.51780e-08 DIIS
   @DF-RKS iter   8:   -56.52012913119109    6.89892e-09   2.66874e-09 DIIS
  Energy and wave function converged.


  ==> Post-Iterations <==

   Electrons on quadrature grid:
      Ntotal   =    9.9999988752 ; deviation = -1.125e-06 

    Orbital Energies [Eh]
    ---------------------

    Doubly Occupied:                                                      

       1A    -14.471532     2A     -0.987582     3A     -0.590167  
       4A     -0.590164     5A     -0.392284  

    Virtual:                                                              

       6A     -0.084644     7A     -0.015245     8A     -0.015245  
       9A      0.006114    10A      0.084802    11A      0.100544  
      12A      0.100544    13A      0.133756    14A      0.133757  
      15A      0.141005    16A      0.214144    17A      0.271718  
      18A      0.271721    19A      0.278020    20A      0.309114  
      21A      0.309114    22A      0.352302    23A      0.429581  
      24A      0.584603    25A      0.584603    26A      0.608297  
      27A      0.615353    28A      0.637900    29A      0.637900  
      30A      0.687027    31A      0.687373    32A      0.692125  
      33A      0.692125    34A      0.698941    35A      0.755314  
      36A      0.755318    37A      0.791558    38A      0.821033  
      39A      0.821033    40A      0.835796    41A      0.872605  
      42A      0.903832    43A      0.903832    44A      0.986733  
      45A      1.000766    46A      1.000768    47A      1.062183  
      48A      1.094421    49A      1.094423    50A      1.167706  
      51A      1.228766    52A      1.523962    53A      1.523963  
      54A      1.568507    55A      1.695311    56A      1.695412  
      57A      1.732182    58A      1.732182    59A      1.853875  
      60A      1.930438    61A      1.930438    62A      1.965639  
      63A      1.965643    64A      1.974504    65A      2.014337  
      66A      2.017780    67A      2.017780    68A      2.042355  
      69A      2.147395    70A      2.147400    71A      2.170014  
      72A      2.170015    73A      2.193598    74A      2.232438  
      75A      2.232449    76A      2.289364    77A      2.297171  
      78A      2.297172    79A      2.308374    80A      2.308374  
      81A      2.354669    82A      2.354809    83A      2.414883  
      84A      2.421194    85A      2.421225    86A      2.433395  
      87A      2.462562    88A      2.462569    89A      2.495522  
      90A      2.660383    91A      2.691077    92A      2.691079  
      93A      2.742799    94A      2.742800    95A      2.744711  
      96A      2.824742    97A      2.824745    98A      2.901625  
      99A      3.040199   100A      3.122956   101A      3.122957  
     102A      3.134907   103A      3.203684   104A      3.227453  
     105A      3.227453   106A      3.401418   107A      3.535334  
     108A      3.535346   109A      3.776761   110A      3.861793  
     111A      3.929808   112A      3.929816   113A      4.092216  
     114A      4.167891   115A      4.167903   116A      4.458711  
     117A      4.458711   118A      4.487210   119A      4.487210  
     120A      4.567859   121A      4.612002   122A      4.612014  
     123A      4.921046   124A      4.921066   125A      5.108517  
     126A      5.244074   127A      5.244074   128A      5.400444  
     129A      5.400444   130A      5.653087   131A      5.695289  
     132A      5.695293   133A      5.705432   134A      5.705441  
     135A      5.752068   136A      5.752068   137A      5.752570  
     138A      5.752598   139A      5.824469   140A      5.832364  
     141A      5.832366   142A      5.899164   143A      5.901751  
     144A      5.901754   145A      6.062534   146A      6.166210  
     147A      6.292597   148A      6.292597   149A      6.295604  
     150A      6.330483   151A      6.330537   152A      6.401884  
     153A      6.442494   154A      6.442502   155A      6.509896  
     156A      6.509896   157A      6.612533   158A      6.612550  
     159A      6.624562   160A      6.821676   161A      6.821701  
     162A      6.829076   163A      6.975355   164A      6.975370  
     165A      7.016816   166A      7.100472   167A      7.124106  
     168A      7.124111   169A      7.211256   170A      7.211261  
     171A      7.343943   172A      7.434609   173A      7.536820  
     174A      7.536829   175A      7.687029   176A      7.687052  
     177A      7.806629   178A      7.807842   179A      7.807854  
     180A      7.836492   181A      7.878607   182A      7.905949  
     183A      7.905957   184A      7.938575   185A      7.938575  
     186A      8.032580   187A      8.043275   188A      8.162091  
     189A      8.162098   190A      8.169897   191A      8.327272  
     192A      8.371863   193A      8.371885   194A      8.399867  
     195A      8.512000   196A      8.512010   197A      8.664559  
     198A      8.698390   199A      8.698395   200A      8.890791  
     201A      9.001905   202A      9.001907   203A      9.089383  
     204A      9.089383   205A      9.283569   206A      9.283582  
     207A      9.342642   208A      9.342642   209A      9.404071  
     210A      9.569030   211A      9.569034   212A      9.770884  
     213A      9.894610   214A      9.938878   215A      9.966755  
     216A      9.966755   217A     10.984890   218A     11.096057  
     219A     11.096079   220A     11.477328   221A     11.542682  
     222A     11.542703   223A     11.727533   224A     11.727584  
     225A     11.897056   226A     11.985275   227A     14.226824  
     228A     14.226829   229A     15.055783   230A     15.276364  
     231A     21.626117   232A     21.626117   233A     21.652945  
     234A     21.652954   235A     21.750843   236A     21.750843  
     237A     21.866935   238A     22.393085   239A     35.564894  
     240A     38.204836   241A     85.412851   242A    118.113200  
     243A    118.113200   244A    118.153286   245A    197.667261  
     246A    233.883202   247A   1051.519183  

    Final Occupation by Irrep:
              A 
    DOCC [     5 ]
    NA   [     5 ]
    NB   [     5 ]

  @DF-RKS Final Energy:   -56.52012913119109

   => Energetics <=

    Nuclear Repulsion Energy =             11.9475428387581371
    One-Electron Energy =                 -99.6907461470243277
    Two-Electron Energy =                  37.2665534818487174
    DFT Exchange-Correlation Energy =      -6.0434793047736175
    Empirical Dispersion Energy =           0.0000000000000000
    VV10 Nonlocal Energy =                  0.0000000000000000
    Total Energy =                        -56.5201291311910907

Computation Completed


Properties will be evaluated at   0.000000,   0.000000,   0.000000 [a0]

Properties computed using the SCF density matrix


 Multipole Moments:

 ------------------------------------------------------------------------------------
     Multipole            Electronic (a.u.)      Nuclear  (a.u.)        Total (a.u.)
 ------------------------------------------------------------------------------------

 L = 1.  Multiply by 2.5417464519 to convert [e a0] to [Debye]
 Dipole X            :         -0.0001021            0.0000977           -0.0000044
 Dipole Y            :         61.9778319          -62.5666217           -0.5887898
 Dipole Z            :          0.0000000            0.0000000            0.0000000
 Magnitude           :                                                    0.5887898

 ------------------------------------------------------------------------------------

*** tstop() called on cmpsrv002 at Thu Sep 19 14:24:05 2024
Module time:
	user time   =      15.17 seconds =       0.25 minutes
	system time =       0.59 seconds =       0.01 minutes
	total time  =         86 seconds =       1.43 minutes
Total time:
	user time   =      65.25 seconds =       1.09 minutes
	system time =       4.58 seconds =       0.08 minutes
	total time  =        476 seconds =       7.93 minutes

         ---------------------------------------------------------
               SAPT(DFT): Intermolecular Interaction Segment       

                   by Daniel G. A. Smith and Rob Parrish           
         ---------------------------------------------------------

  ==> Algorithm <==

   SAPT DFT Functional             PBE0
   Monomer A GRAC Shift        0.116251
   Monomer B GRAC Shift        0.113162
   Delta HF                        True
   JK Algorithm                      DF

  ==> Preparing SAPT Data Cache <== 

  ==> DiskDFJK: Density-Fitted J/K Matrices <==

    J tasked:                  Yes
    K tasked:                  Yes
    wK tasked:                  No
    OpenMP threads:              4
    Integrals threads:           4
    Memory [MiB]:             5128
    Algorithm:                Core
    Integral Cache:           SAVE
    Schwarz Cutoff:          1E-12
    Fitting Condition:       1E-10

   => Auxiliary Basis Set <=

  Basis Set: (THIS_BASIS AUX)
    Blend: DEF2-UNIVERSAL-JKFIT
    Number of shells: 87
    Number of basis functions: 277
    Number of Cartesian functions: 328
    Spherical Harmonics?: true
    Max angular momentum: 4


  ==> E10 Electostatics <== 

    Elst10,r                         -3.07228700 [mEh]

  ==> E10 Exchange <== 

    Exch10(S^2)                       0.20712244 [mEh]
    Exch10                            0.20718119 [mEh]

  ==> E20 Induction <== 

   => Uncoupled Induction <= 

    Ind20,u (A<-B)                   -0.15282588 [mEh]
    Ind20,u (A->B)                   -0.14974469 [mEh]
    Ind20,u                          -0.30257058 [mEh]
    Exch-Ind20,u (A<-B)               0.00210375 [mEh]
    Exch-Ind20,u (A->B)               0.04062846 [mEh]
    Exch-Ind20,u                      0.04273220 [mEh]
    Exch-Ind20,u (A<-B) (S^inf)       0.00210247 [mEh]
    Exch-Ind20,u (A->B) (S^inf)       0.04065918 [mEh]
    Exch-Ind20,u (S^inf)              0.04276166 [mEh]

   => Coupled Induction <= 

   ---------------------------------------------------
              SAPT Coupled Induction Solver           
   ---------------------------------------------------
    Maxiter             =          20
    Convergence         =   1.000E-06
   ---------------------------------------------------
     Iter       (A<-B)           (B->A)      Time [s]
   ---------------------------------------------------
    Guess    8.826434e-01     2.918418e-01          0
        1    1.236366e-01     9.045517e-02          1
        2    2.164352e-02     2.811125e-02          1
        3    5.701085e-03     2.504050e-03          2
        4    7.973865e-04     2.105711e-04          2
        5    9.182505e-05     1.269584e-05          3
        6    8.423556e-06     1.745909e-06          4
        7    3.230898e-07*    1.805644e-07*         4
   ---------------------------------------------------

    Ind20,r (A<-B)                   -0.11234624 [mEh]
    Ind20,r (A->B)                   -0.15204897 [mEh]
    Ind20,r                          -0.26439520 [mEh]
    Exch-Ind20,r (A<-B)               0.00212924 [mEh]
    Exch-Ind20,r (A->B)               0.04475114 [mEh]
    Exch-Ind20,r                      0.04688038 [mEh]
    Exch-Ind20,r (A<-B) (S^inf)       0.00212778 [mEh]
    Exch-Ind20,r (A->B) (S^inf)       0.04478522 [mEh]
    Exch-Ind20,r (S^inf)              0.04691300 [mEh]
   => Loading Basis Set <=

    Name: (THIS_BASIS AUX)
    Role: RIFIT
    Keyword: DF_BASIS_MP2
    atoms 1, 4-6 entry H          line    23 file /home/vance/anaconda3/envs/p4env/share/psi4/basis/def2-qzvp-ri.gbs 
    atoms 2      entry CL         line  1113 file /home/vance/anaconda3/envs/p4env/share/psi4/basis/def2-qzvp-ri.gbs 
    atoms 3      entry N          line   337 file /home/vance/anaconda3/envs/p4env/share/psi4/basis/def2-qzvp-ri.gbs 



  ==> E20 Dispersion (CHF FDDS) <== 

   Legendre Points:          10
   Lambda Shift:          0.300
   Fxc Kernal:             ALDA
   (P|Fxc|Q) Thresh:  1.000e-06
  DFHelper Memory: AOs need 0.206 GiB; user supplied 5.960 GiB. 
  Using in-core AOs.

  ==> DFHelper <==
    NBF:                             247
    NAux:                            532
    Schwarz Cutoff:                1E-12
    Mask sparsity (%):                23
    DFH Avail. Memory [GiB]:       5.960
    OpenMP threads:                    4
    Algorithm:                    DIRECT
    AO Core:                        True
    MO Core:                       False
    Hold Metric:                   False
    Metric Power:                  0.000
    Fitting Condition:             1E-12
    Q Shell Max:                      11


  DFHelper Memory: AOs need 0.261 GiB; user supplied 5.960 GiB. 
  Using in-core AOs.


   => Time Integration <= 

       Omega       Weight       Disp20,u         Disp20   time [s]
   2.269e+01    6.667e-02      1.224e-06      1.057e-06          0
   4.147e+00    1.495e-01      4.226e-05      3.394e-05          0
   1.572e+00    2.191e-01      2.576e-04      1.929e-04          1
   7.589e-01    2.693e-01      6.604e-04      4.596e-04          1
   4.049e-01    2.955e-01      9.060e-04      6.027e-04          1
   2.223e-01    2.955e-01      8.186e-04      5.422e-04          2
   1.186e-01    2.693e-01      5.878e-04      3.929e-04          2
   5.727e-02    2.191e-01      3.739e-04      2.513e-04          2
   2.170e-02    1.495e-01      2.108e-04      1.420e-04          2
   3.966e-03    6.667e-02      8.423e-05      5.674e-05          3

    Disp20,u                         -0.62752853 [mEh]
    Disp20                           -0.42580643 [mEh]

  ==> E20 Dispersion (MP2) <== 


    Disp20 (MP2)                     -0.62559580 [mEh]
    Exch-Disp20,u                     0.02713097 [mEh]
    Scaling Scheme                    FIXED
    Scaling Factor                    0.770
    Est. Exch-Disp20,r                0.02089084 [mEh]

   SAPT(DFT) Results
  ---------------------------------------------------------------------------------------------------------
    Electrostatics                   -3.07228700 [mEh]     -1.92788920 [kcal/mol]     -8.06628842 [kJ/mol]
      Elst1,r                        -3.07228700 [mEh]     -1.92788920 [kcal/mol]     -8.06628842 [kJ/mol]

    Exchange                          0.20718119 [mEh]      0.13000816 [kcal/mol]      0.54395414 [kJ/mol]
      Exch1                           0.20718119 [mEh]      0.13000816 [kcal/mol]      0.54395414 [kJ/mol]
      Exch1(S^2)                      0.20712244 [mEh]      0.12997130 [kcal/mol]      0.54379990 [kJ/mol]

    Induction                        -0.26660621 [mEh]     -0.16729792 [kcal/mol]     -0.69997452 [kJ/mol]
      Ind2,r                         -0.26439520 [mEh]     -0.16591050 [kcal/mol]     -0.69416951 [kJ/mol]
      Exch-Ind2,r                     0.04688038 [mEh]      0.02941788 [kcal/mol]      0.12308443 [kJ/mol]
      Induction (A<-B)               -0.11021700 [mEh]     -0.06916221 [kcal/mol]     -0.28937468 [kJ/mol]
      Induction (A->B)               -0.10729783 [mEh]     -0.06733040 [kcal/mol]     -0.28171040 [kJ/mol]
      delta HF,r (2)                 -0.04909139 [mEh]     -0.03080531 [kcal/mol]     -0.12888943 [kJ/mol]

    Dispersion                       -0.40491559 [mEh]     -0.25408837 [kcal/mol]     -1.06310573 [kJ/mol]
      Disp2,r                        -0.42580643 [mEh]     -0.26719757 [kcal/mol]     -1.11795463 [kJ/mol]
      Disp2,u                        -0.62559580 [mEh]     -0.39256729 [kcal/mol]     -1.64250156 [kJ/mol]
      Est. Exch-Disp2,r               0.02089084 [mEh]      0.01310920 [kcal/mol]      0.05484890 [kJ/mol]
      Exch-Disp2,u                    0.02713097 [mEh]      0.01702494 [kcal/mol]      0.07123234 [kJ/mol]

    Total SAPT(DFT)                  -3.53662761 [mEh]     -2.21926733 [kcal/mol]     -9.28541452 [kJ/mol]
  ---------------------------------------------------------------------------------------------------------

*** tstop() called on cmpsrv002 at Thu Sep 19 15:04:55 2024
Module time:
	user time   =     116.71 seconds =       1.95 minutes
	system time =      20.55 seconds =       0.34 minutes
	total time  =       2536 seconds =      42.27 minutes
Total time:
	user time   =     166.79 seconds =       2.78 minutes
	system time =      24.54 seconds =       0.41 minutes
	total time  =       2926 seconds =      48.77 minutes

    Psi4 stopped on: Thursday, 19 September 2024 03:04PM
    Psi4 wall time for execution: 0:48:47.13

*** Psi4 exiting successfully. Buy a developer a beer!
