
    -----------------------------------------------------------------------
          Psi4: An Open-Source Ab Initio Electronic Structure Package
                               Psi4 1.9.1 release

                         Git: Rev {} zzzzzzz 


    D. G. A. Smith, L. A. Burns, A. C. Simmonett, R. M. Parrish,
    M. C. Schieber, R. Galvelis, P. Kraus, H. Kruse, R. Di Remigio,
    A. Alenaizan, A. M. James, S. Lehtola, J. P. Misiewicz, M. Scheurer,
    R. A. Shaw, J. B. Schriber, Y. Xie, Z. L. Glick, D. A. Sirianni,
    J. S. O'Brien, J. M. Waldrop, A. Kumar, E. G. Hohenstein,
    B. P. Pritchard, B. R. Brooks, H. F. Schaefer III, A. Yu. Sokolov,
    K. Patkowski, A. E. DePrince III, U. Bozkaya, R. A. King,
    F. A. Evangelista, J. M. Turney, T. D. Crawford, C. D. Sherrill,
    J. Chem. Phys. 152(18) 184108 (2020). https://doi.org/10.1063/5.0006002

                            Additional Code Authors
    E. T. Seidl, C. L. Janssen, E. F. Valeev, M. L. Leininger,
    J. F. Gonthier, R. M. Richard, H. R. McAlexander, M. Saitow, X. Wang,
    P. Verma, M. H. Lechner, A. Jiang, S. Behnle, A. G. Heide,
    M. F. Herbst, and D. L. Poole

             Previous Authors, Complete List of Code Contributors,
                       and Citations for Specific Modules
    https://github.com/psi4/psi4/blob/master/codemeta.json
    https://github.com/psi4/psi4/graphs/contributors
    http://psicode.org/psi4manual/master/introduction.html#citing-psifour

    -----------------------------------------------------------------------


    Psi4 started on: Thursday, 19 September 2024 02:16PM

    Process ID: 605856
    Host:       cmpsrv002
    PSIDATADIR: /home/vance/anaconda3/envs/p4env/share/psi4
    Memory:     500.0 MiB
    Threads:    8
    
  ==> Input File <==

--------------------------------------------------------------------------
#charge=0 charge_a=0 charge_b=0 selection_a=1-2 selection_b=3-6 scaling=1.1 benchmark_Eint=-9.339 benchmark_unit=kcal/mol group=XH-N
set_num_threads(4)
memory 8 GB
basis this_basis {
    assign    def2-qzvp
}

molecule {
     0 1
    --
     0 1
     H        0.00000       -0.31269        0.00000
    Cl       -0.00000        1.03066        0.00000
    --
     0 1
     N        0.00000       -2.20666        0.00000
     H       -0.47318       -2.56567        0.81958
     H       -0.47318       -2.56567       -0.81958
     H        0.94637       -2.56567        0.00000
}

set {
    sapt_dft_functional     PBE0
    scf_type                DF
    freeze_core             true
    sapt_dft_grac_shift_a    0.116251
    sapt_dft_grac_shift_b    0.113162
    sapt_dft_do_hybrid      true
    do_ind_exch_sinf        true
    do_disp_exch_sinf       true
}

nrg = energy('sapt(DFT)')
--------------------------------------------------------------------------
  Threads set to 4 by Python driver.

  Memory set to   7.451 GiB by Python driver.

Scratch directory: /scratch2/vance/psi4/

*** tstart() called on cmpsrv002
*** at Thu Sep 19 14:16:09 2024

  SAPT does not make use of molecular symmetry, further calculations in C1 point group.

         ---------------------------------------------------------
                            SAPT(DFT) Procedure                    

                           by Daniel G. A. Smith                   
         ---------------------------------------------------------

Warning! The default value of SAPT_DFT_EXCH_DISP_SCALE_SCHEME has changed from DISP to FIXED. Please be careful comparing results with earlier versions. 

  ==> Algorithm <==

   SAPT DFT Functional             PBE0
   Monomer A GRAC Shift        0.116251
   Monomer B GRAC Shift        0.113162
   Delta HF                        True
   JK Algorithm                      DF

   Required computations:
     HF  (Dimer)
     HF  (Monomer A)
     HF  (Monomer B)
     DFT (Monomer A)
     DFT (Monomer B)

   => Libint2 <=

    Primary   basis highest AM E, G, H:  6, 6, 3
    Auxiliary basis highest AM E, G, H:  7, 7, 4
    Onebody   basis highest AM E, G, H:  -, -, -
    Solid Harmonics ordering:            Gaussian

*** tstart() called on cmpsrv002
*** at Thu Sep 19 14:16:09 2024

   => Loading Basis Set <=

    Name: THIS_BASIS
    Role: ORBITAL
    Keyword: BASIS
    atoms 1, 4-6 entry H          line    15 file /home/vance/anaconda3/envs/p4env/share/psi4/basis/def2-qzvp.gbs 
    atoms 2      entry CL         line   809 file /home/vance/anaconda3/envs/p4env/share/psi4/basis/def2-qzvp.gbs 
    atoms 3      entry N          line   242 file /home/vance/anaconda3/envs/p4env/share/psi4/basis/def2-qzvp.gbs 


         ---------------------------------------------------------
                         SAPT(DFT): delta HF Dimer                 
         ---------------------------------------------------------
                                   SCF
               by Justin Turney, Rob Parrish, Andy Simmonett
                          and Daniel G. A. Smith
                              RHF Reference
                        4 Threads,   7629 MiB Core
         ---------------------------------------------------------

  ==> Geometry <==

    Molecular point group: c1
    Full point group: Cs

    Geometry (in Angstrom), charge = 0, multiplicity = 1:

       Center              X                  Y                   Z               Mass       
    ------------   -----------------  -----------------  -----------------  -----------------
         H           -0.000000190144    -0.257383900463     0.000000000000     1.007825032230
         CL          -0.000000190144     1.085966099537     0.000000000000    34.968852682000
         N           -0.000000190144    -2.151353900463     0.000000000000    14.003074004430
         H           -0.473180190144    -2.510363900463     0.819580000000     1.007825032230
         H           -0.473180190144    -2.510363900463    -0.819580000000     1.007825032230
         H            0.946369809856    -2.510363900463     0.000000000000     1.007825032230

  Running in c1 symmetry.

  Rotational constants: A =      6.22544  B =      0.13324  C =      0.13324 [cm^-1]
  Rotational constants: A = 186633.95025  B =   3994.31046  C =   3994.31020 [MHz]
  Nuclear repulsion =   47.958881424266949

  Charge       = 0
  Multiplicity = 1
  Electrons    = 28
  Nalpha       = 14
  Nbeta        = 14

  ==> Algorithm <==

  SCF Algorithm Type is DF.
  DIIS enabled.
  MOM disabled.
  Fractional occupation disabled.
  Guess Type is SAD.
  Energy threshold   = 1.00e-08
  Density threshold  = 1.00e-08
  Integral threshold = 1.00e-12

  ==> Primary Basis <==

  Basis Set: THIS_BASIS
    Blend: DEF2-QZVP
    Number of shells: 79
    Number of basis functions: 247
    Number of Cartesian functions: 298
    Spherical Harmonics?: true
    Max angular momentum: 4

   => Loading Basis Set <=

    Name: (THIS_BASIS AUX)
    Role: JKFIT
    Keyword: DF_BASIS_SCF
    atoms 1, 4-6 entry H          line    18 file /home/vance/anaconda3/envs/p4env/share/psi4/basis/def2-universal-jkfit.gbs 
    atoms 2      entry CL         line   986 file /home/vance/anaconda3/envs/p4env/share/psi4/basis/def2-universal-jkfit.gbs 
    atoms 3      entry N          line   258 file /home/vance/anaconda3/envs/p4env/share/psi4/basis/def2-universal-jkfit.gbs 

  ==> Integral Setup <==

  ==> DiskDFJK: Density-Fitted J/K Matrices <==

    J tasked:                  Yes
    K tasked:                  Yes
    wK tasked:                  No
    OpenMP threads:              4
    Integrals threads:           4
    Memory [MiB]:             5722
    Algorithm:                Core
    Integral Cache:           SAVE
    Schwarz Cutoff:          1E-12
    Fitting Condition:       1E-10

   => Auxiliary Basis Set <=

  Basis Set: (THIS_BASIS AUX)
    Blend: DEF2-UNIVERSAL-JKFIT
    Number of shells: 87
    Number of basis functions: 277
    Number of Cartesian functions: 328
    Spherical Harmonics?: true
    Max angular momentum: 4

  Minimum eigenvalue in the overlap matrix is 1.1939846914E-04.
  Reciprocal condition number of the overlap matrix is 1.4486131546E-05.
    Using symmetric orthogonalization.

  ==> Pre-Iterations <==

  SCF Guess: Superposition of Atomic Densities via on-the-fly atomic UHF (no occupation information).

   -------------------------
    Irrep   Nso     Nmo    
   -------------------------
     A        247     247 
   -------------------------
    Total     247     247
   -------------------------

  ==> Iterations <==

                           Total Energy        Delta E     RMS |[F,P]|

   @DF-RHF iter SAD:  -515.64485544835429   -5.15645e+02   0.00000e+00 
   @DF-RHF iter   1:  -516.24881499905234   -6.03960e-01   1.88031e-03 DIIS/ADIIS
   @DF-RHF iter   2:  -516.32214491393415   -7.33299e-02   9.54664e-04 DIIS/ADIIS
   @DF-RHF iter   3:  -516.34254233614365   -2.03974e-02   1.33123e-04 DIIS/ADIIS
   @DF-RHF iter   4:  -516.34350719616600   -9.64860e-04   4.97142e-05 DIIS
   @DF-RHF iter   5:  -516.34360785988906   -1.00664e-04   1.15648e-05 DIIS
   @DF-RHF iter   6:  -516.34361945294393   -1.15931e-05   2.81306e-06 DIIS
   @DF-RHF iter   7:  -516.34362024808763   -7.95144e-07   7.55425e-07 DIIS
   @DF-RHF iter   8:  -516.34362029582860   -4.77410e-08   1.93741e-07 DIIS
   @DF-RHF iter   9:  -516.34362029778333   -1.95473e-09   3.76098e-08 DIIS
   @DF-RHF iter  10:  -516.34362029789497   -1.11640e-10   6.56979e-09 DIIS
  Energy and wave function converged.


  ==> Post-Iterations <==

    Orbital Energies [Eh]
    ---------------------

    Doubly Occupied:                                                      

       1A   -104.802835     2A    -15.577695     3A    -10.528109  
       4A     -7.995181     5A     -7.993887     6A     -7.993887  
       7A     -1.180714     8A     -1.064765     9A     -0.669126  
      10A     -0.669123    11A     -0.591516    12A     -0.454737  
      13A     -0.436327    14A     -0.436327  

    Virtual:                                                              

      15A      0.087739    16A      0.142168    17A      0.142168  
      18A      0.184158    19A      0.251903    20A      0.268920  
      21A      0.268920    22A      0.322899    23A      0.332047  
      24A      0.332047    25A      0.347022    26A      0.462820  
      27A      0.462820    28A      0.489156    29A      0.496081  
      30A      0.496081    31A      0.528806    32A      0.528806  
      33A      0.571129    34A      0.571130    35A      0.640428  
      36A      0.694681    37A      0.811627    38A      0.842243  
      39A      0.858685    40A      0.858685    41A      0.887044  
      42A      0.887044    43A      0.946994    44A      1.041437  
      45A      1.041438    46A      1.077133    47A      1.077134  
      48A      1.098940    49A      1.157537    50A      1.285120  
      51A      1.285121    52A      1.295994    53A      1.337588  
      54A      1.337588    55A      1.337918    56A      1.378209  
      57A      1.411313    58A      1.411313    59A      1.451757  
      60A      1.451757    61A      1.456314    62A      1.456314  
      63A      1.508597    64A      1.549513    65A      1.549513  
      66A      1.594248    67A      1.594715    68A      1.595208  
      69A      1.826676    70A      1.826677    71A      1.973798  
      72A      1.973799    73A      1.992176    74A      2.203069  
      75A      2.252371    76A      2.252371    77A      2.306896  
      78A      2.306898    79A      2.313879    80A      2.362981  
      81A      2.419262    82A      2.452099    83A      2.452100  
      84A      2.523727    85A      2.523729    86A      2.571909  
      87A      2.571910    88A      2.629545    89A      2.629546  
      90A      2.676000    91A      2.676001    92A      2.684805  
      93A      2.813146    94A      2.841137    95A      2.841138  
      96A      2.843568    97A      2.938219    98A      3.048845  
      99A      3.048846   100A      3.062607   101A      3.156201  
     102A      3.156206   103A      3.210809   104A      3.237970  
     105A      3.239610   106A      3.239612   107A      3.449459  
     108A      3.517205   109A      3.547155   110A      3.547156  
     111A      3.618792   112A      3.618792   113A      3.665977  
     114A      3.731602   115A      3.731602   116A      3.940551  
     117A      3.940553   118A      3.967959   119A      3.968062  
     120A      3.987827   121A      3.998456   122A      3.998456  
     123A      4.079563   124A      4.117256   125A      4.117256  
     126A      4.134865   127A      4.314534   128A      4.314534  
     129A      4.335872   130A      4.335879   131A      4.352485  
     132A      4.352542   133A      4.402571   134A      4.402571  
     135A      4.463307   136A      4.502245   137A      4.502246  
     138A      4.554014   139A      4.643559   140A      4.643560  
     141A      4.981428   142A      4.981429   143A      4.988671  
     144A      5.098705   145A      5.293003   146A      5.416476  
     147A      5.416484   148A      6.123732   149A      6.123735  
     150A      6.132251   151A      6.135463   152A      6.236384  
     153A      6.236388   154A      6.299729   155A      6.305287  
     156A      6.356664   157A      6.356672   158A      6.703123  
     159A      6.703123   160A      6.763283   161A      6.821725  
     162A      6.895104   163A      6.895109   164A      7.072053  
     165A      7.072056   166A      7.188955   167A      7.238211  
     168A      7.317670   169A      7.317680   170A      7.443091  
     171A      7.443092   172A      7.594880   173A      7.594881  
     174A      7.601075   175A      7.670487   176A      7.673467  
     177A      7.673471   178A      7.704204   179A      7.951973  
     180A      7.951974   181A      8.012821   182A      8.104370  
     183A      8.104372   184A      8.133433   185A      8.247483  
     186A      8.262334   187A      8.262339   188A      8.304600  
     189A      8.304600   190A      8.380546   191A      8.380547  
     192A      8.433362   193A      8.476056   194A      8.542011  
     195A      8.542012   196A      8.548853   197A      8.630662  
     198A      8.723619   199A      8.723624   200A      8.845890  
     201A      8.845899   202A      8.906858   203A      9.039123  
     204A      9.039127   205A      9.055829   206A      9.055830  
     207A      9.062442   208A      9.152478   209A      9.519979  
     210A      9.519989   211A      9.530778   212A      9.684393  
     213A      9.872203   214A      9.872206   215A     10.088145  
     216A     10.088150   217A     10.100322   218A     10.270569  
     219A     10.494276   220A     10.509599   221A     10.509602  
     222A     10.768820   223A     11.318478   224A     11.318478  
     225A     11.432569   226A     11.432569   227A     11.585391  
     228A     11.671417   229A     11.671417   230A     12.060257  
     231A     12.097730   232A     12.097737   233A     12.104216  
     234A     12.282523   235A     12.282536   236A     12.436164  
     237A     14.833974   238A     14.833975   239A     15.703727  
     240A     29.987680   241A     39.413832   242A     43.322163  
     243A     43.322163   244A     43.469671   245A    100.385707  
     246A    200.538458   247A    530.700477  

    Final Occupation by Irrep:
              A 
    DOCC [    14 ]
    NA   [    14 ]
    NB   [    14 ]

  @DF-RHF Final Energy:  -516.34362029789497

   => Energetics <=

    Nuclear Repulsion Energy =             47.9588814242669486
    One-Electron Energy =                -807.8165433998402705
    Two-Electron Energy =                 243.5140416776783923
    Total Energy =                       -516.3436202978949723

Computation Completed


Properties will be evaluated at   0.000000,   0.000000,   0.000000 [a0]

Properties computed using the SCF density matrix


 Multipole Moments:

 ------------------------------------------------------------------------------------
     Multipole            Electronic (a.u.)      Nuclear  (a.u.)        Total (a.u.)
 ------------------------------------------------------------------------------------

 L = 1.  Multiply by 2.5417464519 to convert [e a0] to [Debye]
 Dipole X            :         -0.0000058            0.0000088            0.0000030
 Dipole Y            :          6.5948581           -8.2893389           -1.6944807
 Dipole Z            :         -0.0000000            0.0000000           -0.0000000
 Magnitude           :                                                    1.6944807

 ------------------------------------------------------------------------------------

*** tstop() called on cmpsrv002 at Thu Sep 19 14:18:54 2024
Module time:
	user time   =      11.04 seconds =       0.18 minutes
	system time =       1.07 seconds =       0.02 minutes
	total time  =        165 seconds =       2.75 minutes
Total time:
	user time   =      11.04 seconds =       0.18 minutes
	system time =       1.07 seconds =       0.02 minutes
	total time  =        165 seconds =       2.75 minutes
   => Libint2 <=

    Primary   basis highest AM E, G, H:  6, 6, 3
    Auxiliary basis highest AM E, G, H:  7, 7, 4
    Onebody   basis highest AM E, G, H:  -, -, -
    Solid Harmonics ordering:            Gaussian

*** tstart() called on cmpsrv002
*** at Thu Sep 19 14:18:54 2024

   => Loading Basis Set <=

    Name: THIS_BASIS
    Role: ORBITAL
    Keyword: BASIS
    atoms 1, 4-6 entry H          line    15 file /home/vance/anaconda3/envs/p4env/share/psi4/basis/def2-qzvp.gbs 
    atoms 2      entry CL         line   809 file /home/vance/anaconda3/envs/p4env/share/psi4/basis/def2-qzvp.gbs 
    atoms 3      entry N          line   242 file /home/vance/anaconda3/envs/p4env/share/psi4/basis/def2-qzvp.gbs 


         ---------------------------------------------------------
                       SAPT(DFT): delta HF Monomer A               
         ---------------------------------------------------------
                                   SCF
               by Justin Turney, Rob Parrish, Andy Simmonett
                          and Daniel G. A. Smith
                              RHF Reference
                        4 Threads,   7629 MiB Core
         ---------------------------------------------------------

  ==> Geometry <==

    Molecular point group: c1
    Full point group: Cs

    Geometry (in Angstrom), charge = 0, multiplicity = 1:

       Center              X                  Y                   Z               Mass       
    ------------   -----------------  -----------------  -----------------  -----------------
         H           -0.000000190144    -0.257383900463     0.000000000000     1.007825032230
         CL          -0.000000190144     1.085966099537     0.000000000000    34.968852682000
      Gh(N)          -0.000000190144    -2.151353900463     0.000000000000    14.003074004430
      Gh(H)          -0.473180190144    -2.510363900463     0.819580000000     1.007825032230
      Gh(H)          -0.473180190144    -2.510363900463    -0.819580000000     1.007825032230
      Gh(H)           0.946369809856    -2.510363900463     0.000000000000     1.007825032230

  Running in c1 symmetry.

  Rotational constants: A =      6.22544  B =      0.13324  C =      0.13324 [cm^-1]
  Rotational constants: A = 186633.95025  B =   3994.31046  C =   3994.31020 [MHz]
  Nuclear repulsion =    6.696700473733578

  Charge       = 0
  Multiplicity = 1
  Electrons    = 18
  Nalpha       = 9
  Nbeta        = 9

  ==> Algorithm <==

  SCF Algorithm Type is DF.
  DIIS enabled.
  MOM disabled.
  Fractional occupation disabled.
  Guess Type is SAD.
  Energy threshold   = 1.00e-08
  Density threshold  = 1.00e-08
  Integral threshold = 1.00e-12

  ==> Primary Basis <==

  Basis Set: THIS_BASIS
    Blend: DEF2-QZVP
    Number of shells: 79
    Number of basis functions: 247
    Number of Cartesian functions: 298
    Spherical Harmonics?: true
    Max angular momentum: 4

   => Loading Basis Set <=

    Name: (THIS_BASIS AUX)
    Role: JKFIT
    Keyword: DF_BASIS_SCF
    atoms 1, 4-6 entry H          line    18 file /home/vance/anaconda3/envs/p4env/share/psi4/basis/def2-universal-jkfit.gbs 
    atoms 2      entry CL         line   986 file /home/vance/anaconda3/envs/p4env/share/psi4/basis/def2-universal-jkfit.gbs 
    atoms 3      entry N          line   258 file /home/vance/anaconda3/envs/p4env/share/psi4/basis/def2-universal-jkfit.gbs 

  ==> Integral Setup <==

  ==> DiskDFJK: Density-Fitted J/K Matrices <==

    J tasked:                  Yes
    K tasked:                  Yes
    wK tasked:                  No
    OpenMP threads:              4
    Integrals threads:           4
    Memory [MiB]:             5722
    Algorithm:                Core
    Integral Cache:           SAVE
    Schwarz Cutoff:          1E-12
    Fitting Condition:       1E-10

   => Auxiliary Basis Set <=

  Basis Set: (THIS_BASIS AUX)
    Blend: DEF2-UNIVERSAL-JKFIT
    Number of shells: 87
    Number of basis functions: 277
    Number of Cartesian functions: 328
    Spherical Harmonics?: true
    Max angular momentum: 4

  Minimum eigenvalue in the overlap matrix is 1.1939846914E-04.
  Reciprocal condition number of the overlap matrix is 1.4486131546E-05.
    Using symmetric orthogonalization.

  ==> Pre-Iterations <==

  SCF Guess: Superposition of Atomic Densities via on-the-fly atomic UHF (no occupation information).

   -------------------------
    Irrep   Nso     Nmo    
   -------------------------
     A        247     247 
   -------------------------
    Total     247     247
   -------------------------

  ==> Iterations <==

                           Total Energy        Delta E     RMS |[F,P]|

   @DF-RHF iter SAD:  -459.87337639367229   -4.59873e+02   0.00000e+00 
   @DF-RHF iter   1:  -460.08527125977571   -2.11895e-01   8.92994e-04 DIIS/ADIIS
   @DF-RHF iter   2:  -460.10552978160212   -2.02585e-02   3.75400e-04 DIIS/ADIIS
   @DF-RHF iter   3:  -460.10840788367335   -2.87810e-03   6.56098e-05 DIIS
   @DF-RHF iter   4:  -460.10876127928009   -3.53396e-04   2.09068e-05 DIIS
   @DF-RHF iter   5:  -460.10880660341047   -4.53241e-05   3.61808e-06 DIIS
   @DF-RHF iter   6:  -460.10880774706226   -1.14365e-06   7.89122e-07 DIIS
   @DF-RHF iter   7:  -460.10880777030832   -2.32461e-08   1.69763e-07 DIIS
   @DF-RHF iter   8:  -460.10880777225543   -1.94711e-09   3.34216e-08 DIIS
   @DF-RHF iter   9:  -460.10880777233416   -7.87281e-11   4.89000e-09 DIIS
  Energy and wave function converged.


  ==> Post-Iterations <==

    Orbital Energies [Eh]
    ---------------------

    Doubly Occupied:                                                      

       1A   -104.851991     2A    -10.575739     3A     -8.042851  
       4A     -8.041216     5A     -8.041216     6A     -1.104824  
       7A     -0.611027     8A     -0.475154     9A     -0.475154  

    Virtual:                                                              

      10A      0.055846    11A      0.136333    12A      0.136333  
      13A      0.139210    14A      0.221423    15A      0.248682  
      16A      0.277640    17A      0.277640    18A      0.317311  
      19A      0.317311    20A      0.326634    21A      0.396481  
      22A      0.459909    23A      0.459909    24A      0.495615  
      25A      0.495615    26A      0.542839    27A      0.542839  
      28A      0.611484    29A      0.647840    30A      0.654737  
      31A      0.654738    32A      0.806919    33A      0.866644  
      34A      0.878807    35A      0.878808    36A      0.935503  
      37A      0.940505    38A      0.945722    39A      0.945722  
      40A      1.091910    41A      1.093579    42A      1.093580  
      43A      1.146074    44A      1.146074    45A      1.185604  
      46A      1.303780    47A      1.315058    48A      1.315058  
      49A      1.345478    50A      1.345479    51A      1.390558  
      52A      1.418453    53A      1.418453    54A      1.424823  
      55A      1.424823    56A      1.474572    57A      1.474572  
      58A      1.489159    59A      1.517864    60A      1.517864  
      61A      1.538999    62A      1.561712    63A      1.562759  
      64A      1.851907    65A      1.898665    66A      1.898666  
      67A      2.046947    68A      2.186389    69A      2.186391  
      70A      2.192836    71A      2.298819    72A      2.298819  
      73A      2.414685    74A      2.414687    75A      2.417822  
      76A      2.467697    77A      2.535300    78A      2.535301  
      79A      2.577539    80A      2.577540    81A      2.677925  
      82A      2.687647    83A      2.687649    84A      2.712756  
      85A      2.752243    86A      2.752244    87A      2.827686  
      88A      2.870222    89A      2.870222    90A      2.958384  
      91A      2.958385    92A      2.982552    93A      3.003390  
      94A      3.003390    95A      3.064860    96A      3.188864  
      97A      3.299162    98A      3.422811    99A      3.422813  
     100A      3.431459   101A      3.437596   102A      3.437600  
     103A      3.440618   104A      3.581107   105A      3.581107  
     106A      3.585358   107A      3.678782   108A      3.678782  
     109A      3.749367   110A      3.749370   111A      3.841234  
     112A      3.928301   113A      3.928448   114A      3.960911  
     115A      3.960913   116A      3.961909   117A      3.961909  
     118A      4.038540   119A      4.076685   120A      4.076686  
     121A      4.274513   122A      4.274513   123A      4.276740  
     124A      4.313719   125A      4.313879   126A      4.354813  
     127A      4.354813   128A      4.367051   129A      4.406828  
     130A      4.493530   131A      4.493533   132A      4.531892  
     133A      4.551000   134A      4.551007   135A      4.956536  
     136A      4.956537   137A      4.991404   138A      5.068814  
     139A      5.068821   140A      5.152594   141A      5.397277  
     142A      5.999433   143A      5.999438   144A      6.089297  
     145A      6.093203   146A      6.423758   147A      6.423762  
     148A      6.465052   149A      6.465054   150A      6.548780  
     151A      6.555364   152A      6.658946   153A      6.658946  
     154A      6.773244   155A      6.773252   156A      7.152778  
     157A      7.152784   158A      7.203079   159A      7.338250  
     160A      7.338258   161A      7.409722   162A      7.418521  
     163A      7.418521   164A      7.578896   165A      7.640627  
     166A      7.705279   167A      7.775795   168A      7.775795  
     169A      7.958132   170A      8.138556   171A      8.138561  
     172A      8.156823   173A      8.224222   174A      8.224223  
     175A      8.348051   176A      8.404218   177A      8.404219  
     178A      8.452152   179A      8.452154   180A      8.580922  
     181A      8.600445   182A      8.600445   183A      8.754152  
     184A      8.754157   185A      8.774392   186A      8.786279  
     187A      8.820060   188A      8.820061   189A      8.985861  
     190A      8.985868   191A      8.990162   192A      8.998200  
     193A      9.153344   194A      9.232896   195A      9.232902  
     196A      9.259884   197A      9.322584   198A      9.322584  
     199A      9.476908   200A      9.533601   201A      9.717848  
     202A      9.717863   203A      9.765315   204A      9.960592  
     205A     10.075885   206A     10.075898   207A     10.202801  
     208A     10.202806   209A     10.298875   210A     10.476825  
     211A     10.700479   212A     10.700479   213A     10.985897  
     214A     10.985909   215A     11.187768   216A     11.275009  
     217A     11.275009   218A     11.381538   219A     11.381538  
     220A     11.617806   221A     11.796012   222A     11.796023  
     223A     12.028918   224A     12.353208   225A     12.353221  
     226A     12.790732   227A     13.679805   228A     13.854402  
     229A     13.854407   230A     14.176329   231A     14.281803  
     232A     14.281809   233A     14.570286   234A     14.570291  
     235A     14.598325   236A     16.106563   237A     18.227655  
     238A     18.227667   239A     25.536753   240A     29.941641  
     241A     43.274331   242A     43.274331   243A     43.420908  
     244A     70.302229   245A    100.337631   246A    318.675901  
     247A    530.651604  

    Final Occupation by Irrep:
              A 
    DOCC [     9 ]
    NA   [     9 ]
    NB   [     9 ]

  @DF-RHF Final Energy:  -460.10880777233416

   => Energetics <=

    Nuclear Repulsion Energy =              6.6967004737335785
    One-Electron Energy =                -649.1726745151299838
    Two-Electron Energy =                 182.3671662690622668
    Total Energy =                       -460.1088077723341030

Computation Completed


Properties will be evaluated at   0.000000,   0.000000,   0.000000 [a0]

Properties computed using the SCF density matrix


 Multipole Moments:

 ------------------------------------------------------------------------------------
     Multipole            Electronic (a.u.)      Nuclear  (a.u.)        Total (a.u.)
 ------------------------------------------------------------------------------------

 L = 1.  Multiply by 2.5417464519 to convert [e a0] to [Debye]
 Dipole X            :          0.0000065           -0.0000065           -0.0000000
 Dipole Y            :        -34.9037898           34.4006496           -0.5031402
 Dipole Z            :          0.0000000            0.0000000            0.0000000
 Magnitude           :                                                    0.5031402

 ------------------------------------------------------------------------------------

*** tstop() called on cmpsrv002 at Thu Sep 19 14:20:19 2024
Module time:
	user time   =      10.01 seconds =       0.17 minutes
	system time =       0.63 seconds =       0.01 minutes
	total time  =         85 seconds =       1.42 minutes
Total time:
	user time   =      21.05 seconds =       0.35 minutes
	system time =       1.70 seconds =       0.03 minutes
	total time  =        250 seconds =       4.17 minutes
   => Libint2 <=

    Primary   basis highest AM E, G, H:  6, 6, 3
    Auxiliary basis highest AM E, G, H:  7, 7, 4
    Onebody   basis highest AM E, G, H:  -, -, -
    Solid Harmonics ordering:            Gaussian

*** tstart() called on cmpsrv002
*** at Thu Sep 19 14:20:19 2024

   => Loading Basis Set <=

    Name: THIS_BASIS
    Role: ORBITAL
    Keyword: BASIS
    atoms 1, 4-6 entry H          line    15 file /home/vance/anaconda3/envs/p4env/share/psi4/basis/def2-qzvp.gbs 
    atoms 2      entry CL         line   809 file /home/vance/anaconda3/envs/p4env/share/psi4/basis/def2-qzvp.gbs 
    atoms 3      entry N          line   242 file /home/vance/anaconda3/envs/p4env/share/psi4/basis/def2-qzvp.gbs 


         ---------------------------------------------------------
                       SAPT(DFT): delta HF Monomer B               
         ---------------------------------------------------------
                                   SCF
               by Justin Turney, Rob Parrish, Andy Simmonett
                          and Daniel G. A. Smith
                              RHF Reference
                        4 Threads,   7629 MiB Core
         ---------------------------------------------------------

  ==> Geometry <==

    Molecular point group: c1
    Full point group: Cs

    Geometry (in Angstrom), charge = 0, multiplicity = 1:

       Center              X                  Y                   Z               Mass       
    ------------   -----------------  -----------------  -----------------  -----------------
      Gh(H)          -0.000000190144    -0.257383900463     0.000000000000     1.007825032230
      Gh(CL)         -0.000000190144     1.085966099537     0.000000000000    34.968852682000
         N           -0.000000190144    -2.151353900463     0.000000000000    14.003074004430
         H           -0.473180190144    -2.510363900463     0.819580000000     1.007825032230
         H           -0.473180190144    -2.510363900463    -0.819580000000     1.007825032230
         H            0.946369809856    -2.510363900463     0.000000000000     1.007825032230

  Running in c1 symmetry.

  Rotational constants: A =      6.22544  B =      0.13324  C =      0.13324 [cm^-1]
  Rotational constants: A = 186633.95025  B =   3994.31046  C =   3994.31020 [MHz]
  Nuclear repulsion =   11.947542838505761

  Charge       = 0
  Multiplicity = 1
  Electrons    = 10
  Nalpha       = 5
  Nbeta        = 5

  ==> Algorithm <==

  SCF Algorithm Type is DF.
  DIIS enabled.
  MOM disabled.
  Fractional occupation disabled.
  Guess Type is SAD.
  Energy threshold   = 1.00e-08
  Density threshold  = 1.00e-08
  Integral threshold = 1.00e-12

  ==> Primary Basis <==

  Basis Set: THIS_BASIS
    Blend: DEF2-QZVP
    Number of shells: 79
    Number of basis functions: 247
    Number of Cartesian functions: 298
    Spherical Harmonics?: true
    Max angular momentum: 4

   => Loading Basis Set <=

    Name: (THIS_BASIS AUX)
    Role: JKFIT
    Keyword: DF_BASIS_SCF
    atoms 1, 4-6 entry H          line    18 file /home/vance/anaconda3/envs/p4env/share/psi4/basis/def2-universal-jkfit.gbs 
    atoms 2      entry CL         line   986 file /home/vance/anaconda3/envs/p4env/share/psi4/basis/def2-universal-jkfit.gbs 
    atoms 3      entry N          line   258 file /home/vance/anaconda3/envs/p4env/share/psi4/basis/def2-universal-jkfit.gbs 

  ==> Integral Setup <==

  ==> DiskDFJK: Density-Fitted J/K Matrices <==

    J tasked:                  Yes
    K tasked:                  Yes
    wK tasked:                  No
    OpenMP threads:              4
    Integrals threads:           4
    Memory [MiB]:             5722
    Algorithm:                Core
    Integral Cache:           SAVE
    Schwarz Cutoff:          1E-12
    Fitting Condition:       1E-10

   => Auxiliary Basis Set <=

  Basis Set: (THIS_BASIS AUX)
    Blend: DEF2-UNIVERSAL-JKFIT
    Number of shells: 87
    Number of basis functions: 277
    Number of Cartesian functions: 328
    Spherical Harmonics?: true
    Max angular momentum: 4

  Minimum eigenvalue in the overlap matrix is 1.1939846914E-04.
  Reciprocal condition number of the overlap matrix is 1.4486131546E-05.
    Using symmetric orthogonalization.

  ==> Pre-Iterations <==

  SCF Guess: Superposition of Atomic Densities via on-the-fly atomic UHF (no occupation information).

   -------------------------
    Irrep   Nso     Nmo    
   -------------------------
     A        247     247 
   -------------------------
    Total     247     247
   -------------------------

  ==> Iterations <==

                           Total Energy        Delta E     RMS |[F,P]|

   @DF-RHF iter SAD:   -55.65240497341235   -5.56524e+01   0.00000e+00 
   @DF-RHF iter   1:   -56.12996384560047   -4.77559e-01   1.85965e-03 ADIIS/DIIS
   @DF-RHF iter   2:   -56.19695566748955   -6.69918e-02   1.07265e-03 DIIS/ADIIS
   @DF-RHF iter   3:   -56.22384403736387   -2.68884e-02   9.95306e-05 DIIS
   @DF-RHF iter   4:   -56.22447308727454   -6.29050e-04   1.85079e-05 DIIS
   @DF-RHF iter   5:   -56.22449364399716   -2.05567e-05   3.45299e-06 DIIS
   @DF-RHF iter   6:   -56.22449485129307   -1.20730e-06   8.63146e-07 DIIS
   @DF-RHF iter   7:   -56.22449493121319   -7.99203e-08   1.90083e-07 DIIS
   @DF-RHF iter   8:   -56.22449493533662   -4.12344e-09   3.01154e-08 DIIS
   @DF-RHF iter   9:   -56.22449493544011   -1.03483e-10   8.39822e-09 DIIS
  Energy and wave function converged.


  ==> Post-Iterations <==

    Orbital Energies [Eh]
    ---------------------

    Doubly Occupied:                                                      

       1A    -15.538735     2A     -1.139331     3A     -0.630592  
       4A     -0.630589     5A     -0.425230  

    Virtual:                                                              

       6A      0.098743     7A      0.125052     8A      0.156564  
       9A      0.156564    10A      0.214606    11A      0.214606  
      12A      0.243768    13A      0.326773    14A      0.326774  
      15A      0.333294    16A      0.400213    17A      0.510932  
      18A      0.522180    19A      0.522181    20A      0.545697  
      21A      0.545699    22A      0.557759    23A      0.698461  
      24A      0.744869    25A      0.744869    26A      0.767403  
      27A      0.767403    28A      0.783986    29A      0.783986  
      30A      0.855657    31A      0.868928    32A      0.916316  
      33A      0.916317    34A      0.949669    35A      0.982269  
      36A      0.982269    37A      0.990639    38A      1.076626  
      39A      1.076628    40A      1.086326    41A      1.165496  
      42A      1.165496    43A      1.247945    44A      1.305622  
      45A      1.340694    46A      1.340696    47A      1.406754  
      48A      1.459635    49A      1.467341    50A      1.467342  
      51A      1.727313    52A      1.787922    53A      1.787922  
      54A      1.813234    55A      1.813343    56A      1.893326  
      57A      1.893326    58A      1.942524    59A      2.070570  
      60A      2.070570    61A      2.175630    62A      2.175631  
      63A      2.240221    64A      2.316819    65A      2.316820  
      66A      2.344476    67A      2.379097    68A      2.396483  
      69A      2.409189    70A      2.409189    71A      2.413111  
      72A      2.413113    73A      2.440492    74A      2.440492  
      75A      2.511131    76A      2.511132    77A      2.520632  
      78A      2.591287    79A      2.591288    80A      2.623810  
      81A      2.656745    82A      2.656747    83A      2.740660  
      84A      2.740660    85A      2.751413    86A      2.880917  
      87A      2.886830    88A      2.886831    89A      2.939653  
      90A      3.049250    91A      3.049251    92A      3.068207  
      93A      3.103070    94A      3.103071    95A      3.206038  
      96A      3.206044    97A      3.222980    98A      3.241311  
      99A      3.477116   100A      3.477117   101A      3.512432  
     102A      3.599862   103A      3.730347   104A      3.730349  
     105A      3.945505   106A      3.991968   107A      3.991970  
     108A      4.041332   109A      4.176367   110A      4.193906  
     111A      4.380777   112A      4.380785   113A      4.549009  
     114A      4.549037   115A      4.569346   116A      4.569346  
     117A      4.609174   118A      4.653798   119A      4.653799  
     120A      4.737064   121A      4.737064   122A      5.153872  
     123A      5.363516   124A      5.363516   125A      5.428609  
     126A      5.428617   127A      5.517429   128A      5.560739  
     129A      5.560740   130A      5.762901   131A      5.835679  
     132A      5.835789   133A      5.845895   134A      5.845895  
     135A      5.877129   136A      5.877129   137A      6.163937  
     138A      6.163940   139A      6.199804   140A      6.270617  
     141A      6.270621   142A      6.287043   143A      6.334546  
     144A      6.389607   145A      6.389614   146A      6.420479  
     147A      6.420480   148A      6.437761   149A      6.440648  
     150A      6.647445   151A      6.647445   152A      6.667165  
     153A      6.798483   154A      6.852903   155A      6.933957  
     156A      6.933962   157A      7.022007   158A      7.110801  
     159A      7.110801   160A      7.147088   161A      7.147090  
     162A      7.272859   163A      7.380155   164A      7.380166  
     165A      7.619297   166A      7.619297   167A      7.661859  
     168A      7.693213   169A      7.693832   170A      7.693835  
     171A      7.921394   172A      8.000871   173A      8.000871  
     174A      8.055354   175A      8.121911   176A      8.121913  
     177A      8.171251   178A      8.171251   179A      8.284168  
     180A      8.305170   181A      8.347470   182A      8.347476  
     183A      8.451682   184A      8.488569   185A      8.488569  
     186A      8.512253   187A      8.605294   188A      8.668112  
     189A      8.716781   190A      8.716785   191A      8.839031  
     192A      8.863755   193A      8.863760   194A      8.947883  
     195A      8.947886   196A      9.072212   197A      9.072217  
     198A      9.072392   199A      9.292454   200A      9.354863  
     201A      9.354864   202A      9.554019   203A      9.554028  
     204A      9.648213   205A      9.648216   206A      9.946190  
     207A      9.946192   208A      9.950459   209A     10.132974  
     210A     10.132980   211A     10.150694   212A     10.310084  
     213A     10.426662   214A     10.549043   215A     10.549046  
     216A     10.656913   217A     11.624866   218A     11.709308  
     219A     11.709309   220A     12.059821   221A     12.136144  
     222A     12.136150   223A     12.270859   224A     12.322748  
     225A     12.322762   226A     12.473040   227A     14.870989  
     228A     14.870990   229A     15.530894   230A     15.743734  
     231A     21.723764   232A     21.723764   233A     21.742463  
     234A     21.742463   235A     21.858662   236A     21.858662  
     237A     21.975124   238A     22.531128   239A     35.816417  
     240A     39.453613   241A     85.655696   242A    118.199913  
     243A    118.199913   244A    118.239981   245A    200.577561  
     246A    234.145047   247A   1052.042881  

    Final Occupation by Irrep:
              A 
    DOCC [     5 ]
    NA   [     5 ]
    NB   [     5 ]

  @DF-RHF Final Energy:   -56.22449493544011

   => Energetics <=

    Nuclear Repulsion Energy =             11.9475428385057612
    One-Electron Energy =                 -99.6151182147973486
    Two-Electron Energy =                  31.4430804408514746
    Total Energy =                        -56.2244949354401058

Computation Completed


Properties will be evaluated at   0.000000,   0.000000,   0.000000 [a0]

Properties computed using the SCF density matrix


 Multipole Moments:

 ------------------------------------------------------------------------------------
     Multipole            Electronic (a.u.)      Nuclear  (a.u.)        Total (a.u.)
 ------------------------------------------------------------------------------------

 L = 1.  Multiply by 2.5417464519 to convert [e a0] to [Debye]
 Dipole X            :         -0.0000126            0.0000153            0.0000027
 Dipole Y            :         42.0749397          -42.6899884           -0.6150488
 Dipole Z            :          0.0000000            0.0000000            0.0000000
 Magnitude           :                                                    0.6150488

 ------------------------------------------------------------------------------------

*** tstop() called on cmpsrv002 at Thu Sep 19 14:21:40 2024
Module time:
	user time   =       9.52 seconds =       0.16 minutes
	system time =       0.75 seconds =       0.01 minutes
	total time  =         81 seconds =       1.35 minutes
Total time:
	user time   =      30.57 seconds =       0.51 minutes
	system time =       2.45 seconds =       0.04 minutes
	total time  =        331 seconds =       5.52 minutes

         ---------------------------------------------------------
                        SAPT(DFT): delta HF Segment                

                   by Daniel G. A. Smith and Rob Parrish           
         ---------------------------------------------------------


  ==> Preparing SAPT Data Cache <== 

  ==> DiskDFJK: Density-Fitted J/K Matrices <==

    J tasked:                  Yes
    K tasked:                  Yes
    wK tasked:                  No
    OpenMP threads:              4
    Integrals threads:           4
    Memory [MiB]:             5722
    Algorithm:                Core
    Integral Cache:           SAVE
    Schwarz Cutoff:          1E-12
    Fitting Condition:       1E-10

   => Auxiliary Basis Set <=

  Basis Set: (THIS_BASIS AUX)
    Blend: DEF2-UNIVERSAL-JKFIT
    Number of shells: 87
    Number of basis functions: 277
    Number of Cartesian functions: 328
    Spherical Harmonics?: true
    Max angular momentum: 4


  ==> E10 Electostatics <== 

    Elst10,r                        -24.38962953 [mEh]

  ==> E10 Exchange <== 

    Exch10(S^2)                      26.02501099 [mEh]
    Exch10                           26.57694115 [mEh]

  ==> E20 Induction <== 

   => Uncoupled Induction <= 

    Ind20,u (A<-B)                   -3.17679173 [mEh]
    Ind20,u (A->B)                   -7.77647992 [mEh]
    Ind20,u                         -10.95327165 [mEh]
    Exch-Ind20,u (A<-B)               1.69402362 [mEh]
    Exch-Ind20,u (A->B)               4.23415260 [mEh]
    Exch-Ind20,u                      5.92817623 [mEh]
    Exch-Ind20,u (A<-B) (S^inf)       1.77093803 [mEh]
    Exch-Ind20,u (A->B) (S^inf)       4.47199532 [mEh]
    Exch-Ind20,u (S^inf)              6.24293335 [mEh]

   => Coupled Induction <= 

   ---------------------------------------------------
              SAPT Coupled Induction Solver           
   ---------------------------------------------------
    Maxiter             =          20
    Convergence         =   1.000E-06
   ---------------------------------------------------
     Iter       (A<-B)           (B->A)      Time [s]
   ---------------------------------------------------
    Guess    1.470708e-01     1.679726e-01          0
        1    5.323377e-02     5.215490e-02          0
        2    8.540575e-03     1.517053e-02          0
        3    3.313579e-03     4.178361e-03          0
        4    6.774350e-04     8.011979e-04          0
        5    1.237519e-04     1.333115e-04          0
        6    3.121951e-05     1.880909e-05          0
        7    5.067093e-06     4.334451e-06          0
        8    5.890062e-07*    7.476782e-07*         0
   ---------------------------------------------------

    Ind20,r (A<-B)                   -3.53567119 [mEh]
    Ind20,r (A->B)                  -10.02302703 [mEh]
    Ind20,r                         -13.55869822 [mEh]
    Exch-Ind20,r (A<-B)               1.92953267 [mEh]
    Exch-Ind20,r (A->B)               5.80076114 [mEh]
    Exch-Ind20,r                      7.73029381 [mEh]
    Exch-Ind20,r (A<-B) (S^inf)       2.01786274 [mEh]
    Exch-Ind20,r (A->B) (S^inf)       6.13553789 [mEh]
    Exch-Ind20,r (S^inf)              8.15340064 [mEh]

   Partial SAPT(HF) Results, to compute Delta HF (dHF)
  ---------------------------------------------------------------------------------------------------------
    Electrostatics                  -24.38962953 [mEh]    -15.30472359 [kcal/mol]    -64.03496352 [kJ/mol]
      Elst10,r                      -24.38962953 [mEh]    -15.30472359 [kcal/mol]    -64.03496352 [kJ/mol]

    Exchange                         26.57694115 [mEh]     16.67728236 [kcal/mol]     69.77774938 [kJ/mol]
      Exch10                         26.57694115 [mEh]     16.67728236 [kcal/mol]     69.77774938 [kJ/mol]
      Exch10(S^2)                    26.02501099 [mEh]     16.33094095 [kcal/mol]     68.32865694 [kJ/mol]

    Induction (no dHF)               -5.82840441 [mEh]     -3.65737898 [kcal/mol]    -15.30247367 [kJ/mol]
      Ind20,r                       -13.55869822 [mEh]     -8.50821159 [kcal/mol]    -35.59835728 [kJ/mol]
      Exch-Ind20,r                    7.73029381 [mEh]      4.85083260 [kcal/mol]     20.29588360 [kJ/mol]
      Induction (A<-B) (no dHF)      -1.60613852 [mEh]     -1.00786714 [kcal/mol]     -4.21691611 [kJ/mol]
      Induction (A->B) (no dHF)      -4.22226589 [mEh]     -2.64951185 [kcal/mol]    -11.08555756 [kJ/mol]

    Subtotal SAPT(HF)                -3.64109279 [mEh]     -2.28482022 [kcal/mol]     -9.55968781 [kJ/mol]
    Total HF                        -10.31759012 [mEh]     -6.47438555 [kcal/mol]    -27.08882913 [kJ/mol]
    Delta HF                         -6.67649733 [mEh]     -4.18956532 [kcal/mol]    -17.52914132 [kJ/mol]
  ---------------------------------------------------------------------------------------------------------
   Partial SAPT(HF) Results, alternate SAPT0-like display
  ---------------------------------------------------------------------------------------------------------
    Induction                       -12.50490174 [mEh]     -7.84694431 [kcal/mol]    -32.83161499 [kJ/mol]
      Ind20,r                       -13.55869822 [mEh]     -8.50821159 [kcal/mol]    -35.59835728 [kJ/mol]
      Exch-Ind20,r                    7.73029381 [mEh]      4.85083260 [kcal/mol]     20.29588360 [kJ/mol]
      delta HF,r (2)                 -6.67649733 [mEh]     -4.18956532 [kcal/mol]    -17.52914132 [kJ/mol]
      Induction (A<-B)               -3.44598676 [mEh]     -2.16238934 [kcal/mol]     -9.04743698 [kJ/mol]
      Induction (A->B)               -9.05891498 [mEh]     -5.68455497 [kcal/mol]    -23.78417801 [kJ/mol]
  ---------------------------------------------------------------------------------------------------------
   => Libint2 <=

    Primary   basis highest AM E, G, H:  6, 6, 3
    Auxiliary basis highest AM E, G, H:  7, 7, 4
    Onebody   basis highest AM E, G, H:  -, -, -
    Solid Harmonics ordering:            Gaussian

*** tstart() called on cmpsrv002
*** at Thu Sep 19 14:21:41 2024

   => Loading Basis Set <=

    Name: THIS_BASIS
    Role: ORBITAL
    Keyword: BASIS
    atoms 1, 4-6 entry H          line    15 file /home/vance/anaconda3/envs/p4env/share/psi4/basis/def2-qzvp.gbs 
    atoms 2      entry CL         line   809 file /home/vance/anaconda3/envs/p4env/share/psi4/basis/def2-qzvp.gbs 
    atoms 3      entry N          line   242 file /home/vance/anaconda3/envs/p4env/share/psi4/basis/def2-qzvp.gbs 


         ---------------------------------------------------------
                          SAPT(DFT): DFT Monomer A                 
         ---------------------------------------------------------
                                   SCF
               by Justin Turney, Rob Parrish, Andy Simmonett
                          and Daniel G. A. Smith
                              RKS Reference
                        4 Threads,   7629 MiB Core
         ---------------------------------------------------------

  ==> Geometry <==

    Molecular point group: c1
    Full point group: Cs

    Geometry (in Angstrom), charge = 0, multiplicity = 1:

       Center              X                  Y                   Z               Mass       
    ------------   -----------------  -----------------  -----------------  -----------------
         H           -0.000000190144    -0.257383900463     0.000000000000     1.007825032230
         CL          -0.000000190144     1.085966099537     0.000000000000    34.968852682000
      Gh(N)          -0.000000190144    -2.151353900463     0.000000000000    14.003074004430
      Gh(H)          -0.473180190144    -2.510363900463     0.819580000000     1.007825032230
      Gh(H)          -0.473180190144    -2.510363900463    -0.819580000000     1.007825032230
      Gh(H)           0.946369809856    -2.510363900463     0.000000000000     1.007825032230

  Running in c1 symmetry.

  Rotational constants: A =      6.22544  B =      0.13324  C =      0.13324 [cm^-1]
  Rotational constants: A = 186633.95025  B =   3994.31046  C =   3994.31020 [MHz]
  Nuclear repulsion =    6.696700473733578

  Charge       = 0
  Multiplicity = 1
  Electrons    = 18
  Nalpha       = 9
  Nbeta        = 9

  ==> Algorithm <==

  SCF Algorithm Type is DF.
  DIIS enabled.
  MOM disabled.
  Fractional occupation disabled.
  Guess Type is SAD.
  Energy threshold   = 1.00e-08
  Density threshold  = 1.00e-08
  Integral threshold = 1.00e-12

  ==> Primary Basis <==

  Basis Set: THIS_BASIS
    Blend: DEF2-QZVP
    Number of shells: 79
    Number of basis functions: 247
    Number of Cartesian functions: 298
    Spherical Harmonics?: true
    Max angular momentum: 4

  ==> DFT Potential <==

   => LibXC <=

    Version 6.2.2
    S. Lehtola, C. Steigemann, M. J.T. Oliveira, and M. A.L. Marques.,  SoftwareX 7, 15 (2018) (10.1016/j.softx.2017.11.002)

   => Composite Functional: PBE0 <= 

    PBE0 Hyb-GGA Exchange-Correlation Functional

    C. Adamo and V. Barone.,  J. Chem. Phys. 110, 6158 (1999) (10.1063/1.478522)
    M. Ernzerhof and G. E. Scuseria.,  J. Chem. Phys. 110, 5029 (1999) (10.1063/1.478401)

    Deriv               =              1
    GGA                 =           TRUE
    Meta                =          FALSE

    Exchange Hybrid     =           TRUE
    MP2 Hybrid          =          FALSE

   => Exchange Functionals <=

    0.7500   Perdew, Burke & Ernzerhof

   => Exact (HF) Exchange <=

    0.2500               HF 

   => Correlation Functionals <=

    1.0000   Perdew, Burke & Ernzerhof

   => LibXC Density Thresholds  <==

    XC_HYB_GGA_XC_PBEH:  1.00E-15 

   => Asymptotic Correction <=

    X Functional        =    XC_GGA_X_LB
    C Functional        =   XC_LDA_C_VWN
    Bulk Shift          =       0.116251
    GRAC Alpha          =       0.500000
    GRAC Beta           =      40.000000

   => Molecular Quadrature <=

    Radial Scheme          =       TREUTLER
    Pruning Scheme         =           NONE
    Nuclear Scheme         =       TREUTLER

    Blocking Scheme        =         OCTREE
    BS radius alpha        =              1
    Pruning alpha          =              1
    Radial Points          =             75
    Spherical Points       =            302
    Total Points           =         130553
    Total Blocks           =           1047
    Max Points             =            255
    Max Functions          =            233
    Weights Tolerance      =       1.00E-15

   => Loading Basis Set <=

    Name: (THIS_BASIS AUX)
    Role: JKFIT
    Keyword: DF_BASIS_SCF
    atoms 1, 4-6 entry H          line    18 file /home/vance/anaconda3/envs/p4env/share/psi4/basis/def2-universal-jkfit.gbs 
    atoms 2      entry CL         line   986 file /home/vance/anaconda3/envs/p4env/share/psi4/basis/def2-universal-jkfit.gbs 
    atoms 3      entry N          line   258 file /home/vance/anaconda3/envs/p4env/share/psi4/basis/def2-universal-jkfit.gbs 

  ==> Integral Setup <==

  ==> DiskDFJK: Density-Fitted J/K Matrices <==

    J tasked:                  Yes
    K tasked:                  Yes
    wK tasked:                  No
    OpenMP threads:              4
    Integrals threads:           4
    Memory [MiB]:             4998
    Algorithm:                Core
    Integral Cache:           SAVE
    Schwarz Cutoff:          1E-12
    Fitting Condition:       1E-10

   => Auxiliary Basis Set <=

  Basis Set: (THIS_BASIS AUX)
    Blend: DEF2-UNIVERSAL-JKFIT
    Number of shells: 87
    Number of basis functions: 277
    Number of Cartesian functions: 328
    Spherical Harmonics?: true
    Max angular momentum: 4

  Cached 100.0% of DFT collocation blocks in 0.706 [GiB].

  Minimum eigenvalue in the overlap matrix is 1.1939846914E-04.
  Reciprocal condition number of the overlap matrix is 1.4486131546E-05.
    Using symmetric orthogonalization.

  ==> Pre-Iterations <==

  SCF Guess: Superposition of Atomic Densities via on-the-fly atomic UHF (no occupation information).

   -------------------------
    Irrep   Nso     Nmo    
   -------------------------
     A        247     247 
   -------------------------
    Total     247     247
   -------------------------

  ==> Iterations <==

                           Total Energy        Delta E     RMS |[F,P]|

   @DF-RKS iter SAD:  -460.52654680376236   -4.60527e+02   0.00000e+00 
   @DF-RKS iter   1:  -460.65203257707265   -1.25486e-01   1.20683e-03 DIIS/ADIIS
   @DF-RKS iter   2:  -460.65628564282952   -4.25307e-03   1.00363e-03 DIIS/ADIIS
   @DF-RKS iter   3:  -460.67720476721115   -2.09191e-02   9.24503e-05 DIIS
   @DF-RKS iter   4:  -460.67746831227782   -2.63545e-04   1.84931e-05 DIIS
   @DF-RKS iter   5:  -460.67747795805627   -9.64578e-06   2.57924e-06 DIIS
   @DF-RKS iter   6:  -460.67747760882560    3.49231e-07   1.27037e-07 DIIS
   @DF-RKS iter   7:  -460.67747760553476    3.29084e-09   7.71755e-09 DIIS
  Energy and wave function converged.


  ==> Post-Iterations <==

   Electrons on quadrature grid:
      Ntotal   =   17.9999998676 ; deviation = -1.324e-07 

    Orbital Energies [Eh]
    ---------------------

    Doubly Occupied:                                                      

       1A   -101.839152     2A     -9.660349     3A     -7.395070  
       4A     -7.386729     5A     -7.386729     6A     -0.975559  
       7A     -0.595407     8A     -0.462799     9A     -0.462799  

    Virtual:                                                              

      10A     -0.130134    11A     -0.014629    12A      0.009480  
      13A      0.024985    14A      0.024990    15A      0.077696  
      16A      0.103810    17A      0.103810    18A      0.135338  
      19A      0.135340    20A      0.204376    21A      0.213194  
      22A      0.213194    23A      0.230709    24A      0.248159  
      25A      0.248164    26A      0.374211    27A      0.425792  
      28A      0.425801    29A      0.469186    30A      0.501876  
      31A      0.501878    32A      0.591649    33A      0.666529  
      34A      0.666532    35A      0.698975    36A      0.798959  
      37A      0.814293    38A      0.814305    39A      0.835114  
      40A      0.835188    41A      0.945522    42A      0.945525  
      43A      0.973703    44A      0.973704    45A      0.973932  
      46A      1.004699    47A      1.004699    48A      1.042900  
      49A      1.042901    50A      1.077170    51A      1.077174  
      52A      1.105508    53A      1.128534    54A      1.165807  
      55A      1.165808    56A      1.207721    57A      1.208036  
      58A      1.230693    59A      1.230704    60A      1.254219  
      61A      1.289214    62A      1.289216    63A      1.348464  
      64A      1.592168    65A      1.610980    66A      1.610981  
      67A      1.818299    68A      1.948891    69A      1.948892  
      70A      1.954232    71A      2.064651    72A      2.064654  
      73A      2.188319    74A      2.188322    75A      2.207667  
      76A      2.354538    77A      2.362459    78A      2.362464  
      79A      2.394260    80A      2.394262    81A      2.415432  
      82A      2.504765    83A      2.504771    84A      2.559816  
      85A      2.567525    86A      2.567525    87A      2.609177  
      88A      2.741816    89A      2.741818    90A      2.745075  
      91A      2.790369    92A      2.790370    93A      2.833783  
      94A      2.833788    95A      2.847224    96A      3.002562  
      97A      3.066959    98A      3.096508    99A      3.096508  
     100A      3.160701   101A      3.164728   102A      3.164730  
     103A      3.270313   104A      3.270315   105A      3.302144  
     106A      3.302149   107A      3.321270   108A      3.389356  
     109A      3.453910   110A      3.454149   111A      3.483875  
     112A      3.483876   113A      3.521525   114A      3.597657  
     115A      3.597661   116A      3.601535   117A      3.601535  
     118A      3.730744   119A      3.752064   120A      3.752065  
     121A      3.795699   122A      3.795703   123A      3.805404  
     124A      3.805566   125A      3.862262   126A      3.862262  
     127A      4.043223   128A      4.043225   129A      4.064595  
     130A      4.125976   131A      4.216963   132A      4.257620  
     133A      4.387106   134A      4.387120   135A      4.525511  
     136A      4.525513   137A      4.562241   138A      4.718789  
     139A      4.936470   140A      4.936478   141A      5.248505  
     142A      5.677040   143A      5.681191   144A      5.863063  
     145A      5.863067   146A      6.210670   147A      6.210672  
     148A      6.309256   149A      6.309259   150A      6.325340  
     151A      6.344901   152A      6.344904   153A      6.437246  
     154A      6.643211   155A      6.643220   156A      6.846629  
     157A      6.909792   158A      6.909793   159A      7.060308  
     160A      7.060313   161A      7.205172   162A      7.226243  
     163A      7.226253   164A      7.288220   165A      7.505001  
     166A      7.522637   167A      7.631076   168A      7.631082  
     169A      7.793973   170A      7.794023   171A      7.834082  
     172A      7.919282   173A      7.919285   174A      8.029610  
     175A      8.044862   176A      8.044866   177A      8.184386  
     178A      8.291496   179A      8.291501   180A      8.360109  
     181A      8.433897   182A      8.433898   183A      8.483747  
     184A      8.483755   185A      8.506744   186A      8.631715  
     187A      8.631726   188A      8.633429   189A      8.647042  
     190A      8.865281   191A      8.865288   192A      8.865290  
     193A      9.020812   194A      9.050574   195A      9.058055  
     196A      9.058059   197A      9.128954   198A      9.194368  
     199A      9.194370   200A      9.352151   201A      9.586162  
     202A      9.586178   203A      9.603909   204A      9.806669  
     205A      9.931139   206A      9.931153   207A      9.959855  
     208A     10.062862   209A     10.062865   210A     10.168597  
     211A     10.517956   212A     10.517957   213A     10.556923  
     214A     10.556926   215A     10.629170   216A     10.629170  
     217A     10.844416   218A     10.844431   219A     11.040436  
     220A     11.265198   221A     11.481630   222A     11.655590  
     223A     11.655602   224A     12.213727   225A     12.213738  
     226A     12.655021   227A     13.543755   228A     13.711810  
     229A     13.711814   230A     14.033715   231A     14.134550  
     232A     14.134556   233A     14.427348   234A     14.427353  
     235A     14.443225   236A     15.965599   237A     18.085768  
     238A     18.085779   239A     25.383444   240A     28.872498  
     241A     41.695841   242A     41.695841   243A     41.842840  
     244A     70.147398   245A     98.419717   246A    318.522376  
     247A    525.890595  

    Final Occupation by Irrep:
              A 
    DOCC [     9 ]
    NA   [     9 ]
    NB   [     9 ]

  @DF-RKS Final Energy:  -460.67747760553476

   => Energetics <=

    Nuclear Repulsion Energy =              6.6967004737335785
    One-Electron Energy =                -649.3451282072959430
    Two-Electron Energy =                 203.4302233966194251
    DFT Exchange-Correlation Energy =     -21.4592732685918577
    Empirical Dispersion Energy =           0.0000000000000000
    VV10 Nonlocal Energy =                  0.0000000000000000
    Total Energy =                       -460.6774776055347616

Computation Completed


Properties will be evaluated at   0.000000,   0.000000,   0.000000 [a0]

Properties computed using the SCF density matrix


 Multipole Moments:

 ------------------------------------------------------------------------------------
     Multipole            Electronic (a.u.)      Nuclear  (a.u.)        Total (a.u.)
 ------------------------------------------------------------------------------------

 L = 1.  Multiply by 2.5417464519 to convert [e a0] to [Debye]
 Dipole X            :          0.0000082           -0.0000065            0.0000017
 Dipole Y            :        -34.8766746           34.4006496           -0.4760250
 Dipole Z            :          0.0000000            0.0000000            0.0000000
 Magnitude           :                                                    0.4760250

 ------------------------------------------------------------------------------------

*** tstop() called on cmpsrv002 at Thu Sep 19 14:23:25 2024
Module time:
	user time   =      15.79 seconds =       0.26 minutes
	system time =       1.10 seconds =       0.02 minutes
	total time  =        104 seconds =       1.73 minutes
Total time:
	user time   =      50.74 seconds =       0.85 minutes
	system time =       3.62 seconds =       0.06 minutes
	total time  =        436 seconds =       7.27 minutes
   => Libint2 <=

    Primary   basis highest AM E, G, H:  6, 6, 3
    Auxiliary basis highest AM E, G, H:  7, 7, 4
    Onebody   basis highest AM E, G, H:  -, -, -
    Solid Harmonics ordering:            Gaussian

*** tstart() called on cmpsrv002
*** at Thu Sep 19 14:23:25 2024

   => Loading Basis Set <=

    Name: THIS_BASIS
    Role: ORBITAL
    Keyword: BASIS
    atoms 1, 4-6 entry H          line    15 file /home/vance/anaconda3/envs/p4env/share/psi4/basis/def2-qzvp.gbs 
    atoms 2      entry CL         line   809 file /home/vance/anaconda3/envs/p4env/share/psi4/basis/def2-qzvp.gbs 
    atoms 3      entry N          line   242 file /home/vance/anaconda3/envs/p4env/share/psi4/basis/def2-qzvp.gbs 


         ---------------------------------------------------------
                          SAPT(DFT): DFT Monomer B                 
         ---------------------------------------------------------
                                   SCF
               by Justin Turney, Rob Parrish, Andy Simmonett
                          and Daniel G. A. Smith
                              RKS Reference
                        4 Threads,   7629 MiB Core
         ---------------------------------------------------------

  ==> Geometry <==

    Molecular point group: c1
    Full point group: Cs

    Geometry (in Angstrom), charge = 0, multiplicity = 1:

       Center              X                  Y                   Z               Mass       
    ------------   -----------------  -----------------  -----------------  -----------------
      Gh(H)          -0.000000190144    -0.257383900463     0.000000000000     1.007825032230
      Gh(CL)         -0.000000190144     1.085966099537     0.000000000000    34.968852682000
         N           -0.000000190144    -2.151353900463     0.000000000000    14.003074004430
         H           -0.473180190144    -2.510363900463     0.819580000000     1.007825032230
         H           -0.473180190144    -2.510363900463    -0.819580000000     1.007825032230
         H            0.946369809856    -2.510363900463     0.000000000000     1.007825032230

  Running in c1 symmetry.

  Rotational constants: A =      6.22544  B =      0.13324  C =      0.13324 [cm^-1]
  Rotational constants: A = 186633.95025  B =   3994.31046  C =   3994.31020 [MHz]
  Nuclear repulsion =   11.947542838505761

  Charge       = 0
  Multiplicity = 1
  Electrons    = 10
  Nalpha       = 5
  Nbeta        = 5

  ==> Algorithm <==

  SCF Algorithm Type is DF.
  DIIS enabled.
  MOM disabled.
  Fractional occupation disabled.
  Guess Type is SAD.
  Energy threshold   = 1.00e-08
  Density threshold  = 1.00e-08
  Integral threshold = 1.00e-12

  ==> Primary Basis <==

  Basis Set: THIS_BASIS
    Blend: DEF2-QZVP
    Number of shells: 79
    Number of basis functions: 247
    Number of Cartesian functions: 298
    Spherical Harmonics?: true
    Max angular momentum: 4

  ==> DFT Potential <==

   => LibXC <=

    Version 6.2.2
    S. Lehtola, C. Steigemann, M. J.T. Oliveira, and M. A.L. Marques.,  SoftwareX 7, 15 (2018) (10.1016/j.softx.2017.11.002)

   => Composite Functional: PBE0 <= 

    PBE0 Hyb-GGA Exchange-Correlation Functional

    C. Adamo and V. Barone.,  J. Chem. Phys. 110, 6158 (1999) (10.1063/1.478522)
    M. Ernzerhof and G. E. Scuseria.,  J. Chem. Phys. 110, 5029 (1999) (10.1063/1.478401)

    Deriv               =              1
    GGA                 =           TRUE
    Meta                =          FALSE

    Exchange Hybrid     =           TRUE
    MP2 Hybrid          =          FALSE

   => Exchange Functionals <=

    0.7500   Perdew, Burke & Ernzerhof

   => Exact (HF) Exchange <=

    0.2500               HF 

   => Correlation Functionals <=

    1.0000   Perdew, Burke & Ernzerhof

   => LibXC Density Thresholds  <==

    XC_HYB_GGA_XC_PBEH:  1.00E-15 

   => Asymptotic Correction <=

    X Functional        =    XC_GGA_X_LB
    C Functional        =   XC_LDA_C_VWN
    Bulk Shift          =       0.113162
    GRAC Alpha          =       0.500000
    GRAC Beta           =      40.000000

   => Molecular Quadrature <=

    Radial Scheme          =       TREUTLER
    Pruning Scheme         =           NONE
    Nuclear Scheme         =       TREUTLER

    Blocking Scheme        =         OCTREE
    BS radius alpha        =              1
    Pruning alpha          =              1
    Radial Points          =             75
    Spherical Points       =            302
    Total Points           =         130553
    Total Blocks           =           1047
    Max Points             =            255
    Max Functions          =            233
    Weights Tolerance      =       1.00E-15

   => Loading Basis Set <=

    Name: (THIS_BASIS AUX)
    Role: JKFIT
    Keyword: DF_BASIS_SCF
    atoms 1, 4-6 entry H          line    18 file /home/vance/anaconda3/envs/p4env/share/psi4/basis/def2-universal-jkfit.gbs 
    atoms 2      entry CL         line   986 file /home/vance/anaconda3/envs/p4env/share/psi4/basis/def2-universal-jkfit.gbs 
    atoms 3      entry N          line   258 file /home/vance/anaconda3/envs/p4env/share/psi4/basis/def2-universal-jkfit.gbs 

  ==> Integral Setup <==

  ==> DiskDFJK: Density-Fitted J/K Matrices <==

    J tasked:                  Yes
    K tasked:                  Yes
    wK tasked:                  No
    OpenMP threads:              4
    Integrals threads:           4
    Memory [MiB]:             4998
    Algorithm:                Core
    Integral Cache:           SAVE
    Schwarz Cutoff:          1E-12
    Fitting Condition:       1E-10

   => Auxiliary Basis Set <=

  Basis Set: (THIS_BASIS AUX)
    Blend: DEF2-UNIVERSAL-JKFIT
    Number of shells: 87
    Number of basis functions: 277
    Number of Cartesian functions: 328
    Spherical Harmonics?: true
    Max angular momentum: 4

  Cached 100.0% of DFT collocation blocks in 0.706 [GiB].

  Minimum eigenvalue in the overlap matrix is 1.1939846914E-04.
  Reciprocal condition number of the overlap matrix is 1.4486131546E-05.
    Using symmetric orthogonalization.

  ==> Pre-Iterations <==

  SCF Guess: Superposition of Atomic Densities via on-the-fly atomic UHF (no occupation information).

   -------------------------
    Irrep   Nso     Nmo    
   -------------------------
     A        247     247 
   -------------------------
    Total     247     247
   -------------------------

  ==> Iterations <==

                           Total Energy        Delta E     RMS |[F,P]|

   @DF-RKS iter SAD:   -56.06961042357756   -5.60696e+01   0.00000e+00 
   @DF-RKS iter   1:   -56.28030605023405   -2.10696e-01   3.14605e-03 DIIS/ADIIS
   @DF-RKS iter   2:   -56.02145530415400    2.58851e-01   4.12190e-03 DIIS/ADIIS
   @DF-RKS iter   3:   -56.51878615924034   -4.97331e-01   2.18599e-04 DIIS/ADIIS
   @DF-RKS iter   4:   -56.52024225748131   -1.45610e-03   1.93709e-05 DIIS
   @DF-RKS iter   5:   -56.52024966151077   -7.40403e-06   5.08875e-06 DIIS
   @DF-RKS iter   6:   -56.52024971109266   -4.95819e-08   1.94889e-07 DIIS
   @DF-RKS iter   7:   -56.52024967159475    3.94979e-08   2.58646e-08 DIIS
   @DF-RKS iter   8:   -56.52024966206559    9.52917e-09   2.89418e-09 DIIS
  Energy and wave function converged.


  ==> Post-Iterations <==

   Electrons on quadrature grid:
      Ntotal   =    9.9999951291 ; deviation = -4.871e-06 

    Orbital Energies [Eh]
    ---------------------

    Doubly Occupied:                                                      

       1A    -14.471808     2A     -0.987784     3A     -0.590340  
       4A     -0.590338     5A     -0.392590  

    Virtual:                                                              

       6A     -0.084434     7A     -0.015485     8A     -0.015483  
       9A      0.008455    10A      0.080899    11A      0.080905  
      12A      0.112950    13A      0.145819    14A      0.145822  
      15A      0.149561    16A      0.262142    17A      0.271507  
      18A      0.271510    19A      0.278388    20A      0.309146  
      21A      0.309148    22A      0.370041    23A      0.515727  
      24A      0.582136    25A      0.582139    26A      0.615349  
      27A      0.628217    28A      0.628225    29A      0.661928  
      30A      0.661931    31A      0.668578    32A      0.704181  
      33A      0.704187    34A      0.775163    35A      0.775172  
      36A      0.782518    37A      0.815852    38A      0.817179  
      39A      0.817187    40A      0.860803    41A      0.933324  
      42A      0.933334    43A      1.021399    44A      1.051324  
      45A      1.051325    46A      1.064282    47A      1.080478  
      48A      1.165465    49A      1.165466    50A      1.250852  
      51A      1.519270    52A      1.594766    53A      1.594769  
      54A      1.658722    55A      1.658743    56A      1.677469  
      57A      1.702738    58A      1.703013    59A      1.912674  
      60A      1.912678    61A      1.958443    62A      1.958447  
      63A      2.014271    64A      2.042268    65A      2.044966  
      66A      2.044967    67A      2.050832    68A      2.122309  
      69A      2.122316    70A      2.158018    71A      2.158019  
      72A      2.203912    73A      2.235708    74A      2.235708  
      75A      2.296257    76A      2.302099    77A      2.302103  
      78A      2.331157    79A      2.331161    80A      2.349007  
      81A      2.349010    82A      2.390805    83A      2.467110  
      84A      2.467120    85A      2.490203    86A      2.524315  
      87A      2.577078    88A      2.577079    89A      2.621060  
      90A      2.721138    91A      2.755704    92A      2.755705  
      93A      2.792446    94A      2.792453    95A      2.848781  
      96A      2.848792    97A      2.901559    98A      2.933817  
      99A      3.128122   100A      3.128123   101A      3.163295  
     102A      3.273274   103A      3.441350   104A      3.441350  
     105A      3.589432   106A      3.589439   107A      3.620469  
     108A      3.723905   109A      3.776375   110A      3.940370  
     111A      3.954049   112A      3.954066   113A      4.163923  
     114A      4.194974   115A      4.194975   116A      4.429755  
     117A      4.429907   118A      4.457521   119A      4.457524  
     120A      4.595563   121A      4.595573   122A      4.701995  
     123A      4.941862   124A      4.941871   125A      5.224880  
     126A      5.224880   127A      5.341747   128A      5.408136  
     129A      5.408136   130A      5.604510   131A      5.721822  
     132A      5.721933   133A      5.727577   134A      5.727588  
     135A      5.730916   136A      5.730922   137A      5.750971  
     138A      5.750975   139A      5.845189   140A      5.845192  
     141A      5.869626   142A      5.899023   143A      5.930082  
     144A      5.930094   145A      6.131344   146A      6.226076  
     147A      6.228805   148A      6.295461   149A      6.301981  
     150A      6.301982   151A      6.326353   152A      6.446286  
     153A      6.446297   154A      6.492342   155A      6.492344  
     156A      6.577248   157A      6.656358   158A      6.656364  
     159A      6.710956   160A      6.829386   161A      6.858329  
     162A      6.858339   163A      6.939654   164A      6.939658  
     165A      7.156630   166A      7.156634   167A      7.179886  
     168A      7.217650   169A      7.217663   170A      7.232348  
     171A      7.497998   172A      7.564401   173A      7.564410  
     174A      7.568746   175A      7.707298   176A      7.707314  
     177A      7.806603   178A      7.837649   179A      7.837656  
     180A      7.959810   181A      7.959811   182A      7.962460  
     183A      8.040212   184A      8.040217   185A      8.043547  
     186A      8.078457   187A      8.143515   188A      8.169996  
     189A      8.207726   190A      8.207730   191A      8.382307  
     192A      8.382307   193A      8.392249   194A      8.526432  
     195A      8.526435   196A      8.574168   197A      8.712550  
     198A      8.712591   199A      8.830603   200A      8.995307  
     201A      8.995320   202A      9.106425   203A      9.106432  
     204A      9.325197   205A      9.325199   206A      9.458451  
     207A      9.482366   208A      9.482367   209A      9.602261  
     210A      9.602268   211A      9.618439   212A      9.770832  
     213A      9.976140   214A      9.976149   215A     10.096774  
     216A     10.190602   217A     11.038268   218A     11.109645  
     219A     11.109646   220A     11.519033   221A     11.561846  
     222A     11.561852   223A     11.743355   224A     11.743373  
     225A     11.897051   226A     12.028155   227A     14.269048  
     228A     14.269054   229A     15.102584   230A     15.414442  
     231A     21.611646   232A     21.611646   233A     21.628832  
     234A     21.628832   235A     21.738899   236A     21.738899  
     237A     21.863144   238A     22.408160   239A     35.699417  
     240A     38.283724   241A     85.538259   242A    118.082446  
     243A    118.082446   244A    118.119417   245A    197.774825  
     246A    234.030090   247A   1051.920934  

    Final Occupation by Irrep:
              A 
    DOCC [     5 ]
    NA   [     5 ]
    NB   [     5 ]

  @DF-RKS Final Energy:   -56.52024966206559

   => Energetics <=

    Nuclear Repulsion Energy =             11.9475428385057612
    One-Electron Energy =                 -99.6888890648582446
    Two-Electron Energy =                  37.2642940455317841
    DFT Exchange-Correlation Energy =      -6.0431974812448965
    Empirical Dispersion Energy =           0.0000000000000000
    VV10 Nonlocal Energy =                  0.0000000000000000
    Total Energy =                        -56.5202496620655879

Computation Completed


Properties will be evaluated at   0.000000,   0.000000,   0.000000 [a0]

Properties computed using the SCF density matrix


 Multipole Moments:

 ------------------------------------------------------------------------------------
     Multipole            Electronic (a.u.)      Nuclear  (a.u.)        Total (a.u.)
 ------------------------------------------------------------------------------------

 L = 1.  Multiply by 2.5417464519 to convert [e a0] to [Debye]
 Dipole X            :         -0.0000054            0.0000153            0.0000099
 Dipole Y            :         42.1038675          -42.6899884           -0.5861209
 Dipole Z            :         -0.0000000            0.0000000           -0.0000000
 Magnitude           :                                                    0.5861209

 ------------------------------------------------------------------------------------

*** tstop() called on cmpsrv002 at Thu Sep 19 14:24:51 2024
Module time:
	user time   =      18.16 seconds =       0.30 minutes
	system time =       0.69 seconds =       0.01 minutes
	total time  =         86 seconds =       1.43 minutes
Total time:
	user time   =      68.90 seconds =       1.15 minutes
	system time =       4.31 seconds =       0.07 minutes
	total time  =        522 seconds =       8.70 minutes

         ---------------------------------------------------------
               SAPT(DFT): Intermolecular Interaction Segment       

                   by Daniel G. A. Smith and Rob Parrish           
         ---------------------------------------------------------

  ==> Algorithm <==

   SAPT DFT Functional             PBE0
   Monomer A GRAC Shift        0.116251
   Monomer B GRAC Shift        0.113162
   Delta HF                        True
   JK Algorithm                      DF

  ==> Preparing SAPT Data Cache <== 

  ==> DiskDFJK: Density-Fitted J/K Matrices <==

    J tasked:                  Yes
    K tasked:                  Yes
    wK tasked:                  No
    OpenMP threads:              4
    Integrals threads:           4
    Memory [MiB]:             4998
    Algorithm:                Core
    Integral Cache:           SAVE
    Schwarz Cutoff:          1E-12
    Fitting Condition:       1E-10

   => Auxiliary Basis Set <=

  Basis Set: (THIS_BASIS AUX)
    Blend: DEF2-UNIVERSAL-JKFIT
    Number of shells: 87
    Number of basis functions: 277
    Number of Cartesian functions: 328
    Spherical Harmonics?: true
    Max angular momentum: 4


  ==> E10 Electostatics <== 

    Elst10,r                        -23.42858042 [mEh]

  ==> E10 Exchange <== 

    Exch10(S^2)                      26.89089500 [mEh]
    Exch10                           27.47522850 [mEh]

  ==> E20 Induction <== 

   => Uncoupled Induction <= 

    Ind20,u (A<-B)                   -3.98044576 [mEh]
    Ind20,u (A->B)                  -10.37706680 [mEh]
    Ind20,u                         -14.35751257 [mEh]
    Exch-Ind20,u (A<-B)               2.01953775 [mEh]
    Exch-Ind20,u (A->B)               6.03789074 [mEh]
    Exch-Ind20,u                      8.05742849 [mEh]
    Exch-Ind20,u (A<-B) (S^inf)       2.11331153 [mEh]
    Exch-Ind20,u (A->B) (S^inf)       6.38116263 [mEh]
    Exch-Ind20,u (S^inf)              8.49447416 [mEh]

   => Coupled Induction <= 

   ---------------------------------------------------
              SAPT Coupled Induction Solver           
   ---------------------------------------------------
    Maxiter             =          20
    Convergence         =   1.000E-06
   ---------------------------------------------------
     Iter       (A<-B)           (B->A)      Time [s]
   ---------------------------------------------------
    Guess    2.648187e-01     1.420716e-01          0
        1    4.249782e-02     5.479192e-02          1
        2    9.191849e-03     1.851729e-02          2
        3    2.467209e-03     1.562654e-03          3
        4    2.469275e-04     1.279406e-04          4
        5    3.396361e-05     7.430916e-06          5
        6    2.066129e-06     7.853051e-07*         5
        7    1.443495e-07*    7.853051e-07*         6
   ---------------------------------------------------

    Ind20,r (A<-B)                   -3.70008386 [mEh]
    Ind20,r (A->B)                  -11.07279009 [mEh]
    Ind20,r                         -14.77287395 [mEh]
    Exch-Ind20,r (A<-B)               2.25063796 [mEh]
    Exch-Ind20,r (A->B)               6.76498741 [mEh]
    Exch-Ind20,r                      9.01562537 [mEh]
    Exch-Ind20,r (A<-B) (S^inf)       2.35713530 [mEh]
    Exch-Ind20,r (A->B) (S^inf)       7.15257653 [mEh]
    Exch-Ind20,r (S^inf)              9.50971182 [mEh]
   => Loading Basis Set <=

    Name: (THIS_BASIS AUX)
    Role: RIFIT
    Keyword: DF_BASIS_MP2
    atoms 1, 4-6 entry H          line    23 file /home/vance/anaconda3/envs/p4env/share/psi4/basis/def2-qzvp-ri.gbs 
    atoms 2      entry CL         line  1113 file /home/vance/anaconda3/envs/p4env/share/psi4/basis/def2-qzvp-ri.gbs 
    atoms 3      entry N          line   337 file /home/vance/anaconda3/envs/p4env/share/psi4/basis/def2-qzvp-ri.gbs 



  ==> E20 Dispersion (CHF FDDS) <== 

   Legendre Points:          10
   Lambda Shift:          0.300
   Fxc Kernal:             ALDA
   (P|Fxc|Q) Thresh:  1.000e-06
  DFHelper Memory: AOs need 0.245 GiB; user supplied 5.960 GiB. 
  Using in-core AOs.

  ==> DFHelper <==
    NBF:                             247
    NAux:                            532
    Schwarz Cutoff:                1E-12
    Mask sparsity (%):                 7
    DFH Avail. Memory [GiB]:       5.960
    OpenMP threads:                    4
    Algorithm:                    DIRECT
    AO Core:                        True
    MO Core:                       False
    Hold Metric:                   False
    Metric Power:                  0.000
    Fitting Condition:             1E-12
    Q Shell Max:                      11


  DFHelper Memory: AOs need 0.261 GiB; user supplied 5.960 GiB. 
  Using in-core AOs.


   => Time Integration <= 

       Omega       Weight       Disp20,u         Disp20   time [s]
   2.269e+01    6.667e-02      1.374e-04      1.285e-04          0
   4.147e+00    1.495e-01      2.564e-03      2.301e-03          0
   1.572e+00    2.191e-01      8.388e-03      7.004e-03          1
   7.589e-01    2.693e-01      1.454e-02      1.108e-02          1
   4.049e-01    2.955e-01      1.612e-02      1.136e-02          2
   2.223e-01    2.955e-01      1.308e-02      8.875e-03          2
   1.186e-01    2.693e-01      8.952e-03      5.998e-03          2
   5.727e-02    2.191e-01      5.595e-03      3.736e-03          3
   2.170e-02    1.495e-01      3.139e-03      2.094e-03          3
   3.966e-03    6.667e-02      1.253e-03      8.359e-04          3

    Disp20,u                        -11.74036543 [mEh]
    Disp20                           -8.50082682 [mEh]

  ==> E20 Dispersion (MP2) <== 


    Disp20 (MP2)                    -11.70264165 [mEh]
    Exch-Disp20,u                     2.42305888 [mEh]
    Scaling Scheme                    FIXED
    Scaling Factor                    0.770
    Est. Exch-Disp20,r                1.86575534 [mEh]

   SAPT(DFT) Results
  ---------------------------------------------------------------------------------------------------------
    Electrostatics                  -23.42858042 [mEh]    -14.70165617 [kcal/mol]    -61.51172943 [kJ/mol]
      Elst1,r                       -23.42858042 [mEh]    -14.70165617 [kcal/mol]    -61.51172943 [kJ/mol]

    Exchange                         27.47522850 [mEh]     17.24096618 [kcal/mol]     72.13620250 [kJ/mol]
      Exch1                          27.47522850 [mEh]     17.24096618 [kcal/mol]     72.13620250 [kJ/mol]
      Exch1(S^2)                     26.89089500 [mEh]     16.87429137 [kcal/mol]     70.60203511 [kJ/mol]

    Induction                       -12.43374591 [mEh]     -7.80229335 [kcal/mol]    -32.64479539 [kJ/mol]
      Ind2,r                        -14.77287395 [mEh]     -9.27011836 [kcal/mol]    -38.78617522 [kJ/mol]
      Exch-Ind2,r                     9.01562537 [mEh]      5.65739033 [kcal/mol]     23.67052115 [kJ/mol]
      Induction (A<-B)               -1.44944590 [mEh]     -0.90954104 [kcal/mol]     -3.80551969 [kJ/mol]
      Induction (A->B)               -4.30780268 [mEh]     -2.70318699 [kcal/mol]    -11.31013438 [kJ/mol]
      delta HF,r (2)                 -6.67649733 [mEh]     -4.18956532 [kcal/mol]    -17.52914132 [kJ/mol]

    Dispersion                       -6.63507146 [mEh]     -4.16357020 [kcal/mol]    -17.42037772 [kJ/mol]
      Disp2,r                        -8.50082680 [mEh]     -5.33434935 [kcal/mol]    -22.31891768 [kJ/mol]
      Disp2,u                       -11.70264165 [mEh]     -7.34351851 [kcal/mol]    -30.72528143 [kJ/mol]
      Est. Exch-Disp2,r               1.86575534 [mEh]      1.17077915 [kcal/mol]      4.89853997 [kJ/mol]
      Exch-Disp2,u                    2.42305888 [mEh]      1.52049240 [kcal/mol]      6.36174022 [kJ/mol]

    Total SAPT(DFT)                 -15.02216929 [mEh]     -9.42655354 [kcal/mol]    -39.44070003 [kJ/mol]
  ---------------------------------------------------------------------------------------------------------

*** tstop() called on cmpsrv002 at Thu Sep 19 15:05:05 2024
Module time:
	user time   =     121.66 seconds =       2.03 minutes
	system time =      19.71 seconds =       0.33 minutes
	total time  =       2502 seconds =      41.70 minutes
Total time:
	user time   =     181.86 seconds =       3.03 minutes
	system time =      23.77 seconds =       0.40 minutes
	total time  =       2942 seconds =      49.03 minutes

    Psi4 stopped on: Thursday, 19 September 2024 03:05PM
    Psi4 wall time for execution: 0:49:02.03

*** Psi4 exiting successfully. Buy a developer a beer!
