
    -----------------------------------------------------------------------
          Psi4: An Open-Source Ab Initio Electronic Structure Package
                               Psi4 1.9.1 release

                         Git: Rev {} zzzzzzz 


    D. G. A. Smith, L. A. Burns, A. C. Simmonett, R. M. Parrish,
    M. C. Schieber, R. Galvelis, P. Kraus, H. Kruse, R. Di Remigio,
    A. Alenaizan, A. M. James, S. Lehtola, J. P. Misiewicz, M. Scheurer,
    R. A. Shaw, J. B. Schriber, Y. Xie, Z. L. Glick, D. A. Sirianni,
    J. S. O'Brien, J. M. Waldrop, A. Kumar, E. G. Hohenstein,
    B. P. Pritchard, B. R. Brooks, H. F. Schaefer III, A. Yu. Sokolov,
    K. Patkowski, A. E. DePrince III, U. Bozkaya, R. A. King,
    F. A. Evangelista, J. M. Turney, T. D. Crawford, C. D. Sherrill,
    J. Chem. Phys. 152(18) 184108 (2020). https://doi.org/10.1063/5.0006002

                            Additional Code Authors
    E. T. Seidl, C. L. Janssen, E. F. Valeev, M. L. Leininger,
    J. F. Gonthier, R. M. Richard, H. R. McAlexander, M. Saitow, X. Wang,
    P. Verma, M. H. Lechner, A. Jiang, S. Behnle, A. G. Heide,
    M. F. Herbst, and D. L. Poole

             Previous Authors, Complete List of Code Contributors,
                       and Citations for Specific Modules
    https://github.com/psi4/psi4/blob/master/codemeta.json
    https://github.com/psi4/psi4/graphs/contributors
    http://psicode.org/psi4manual/master/introduction.html#citing-psifour

    -----------------------------------------------------------------------


    Psi4 started on: Thursday, 19 September 2024 02:16PM

    Process ID: 605850
    Host:       cmpsrv002
    PSIDATADIR: /home/vance/anaconda3/envs/p4env/share/psi4
    Memory:     500.0 MiB
    Threads:    8
    
  ==> Input File <==

--------------------------------------------------------------------------
#charge=0 charge_a=0 charge_b=0 selection_a=1-2 selection_b=3-6 scaling=0.8 benchmark_Eint=-4.975 benchmark_unit=kcal/mol group=XH-N
set_num_threads(4)
memory 8 GB
basis this_basis {
    assign    def2-qzvp
}

molecule {
     0 1
    --
     0 1
     H        0.00000       -0.31269        0.00000
    Cl       -0.00000        1.03066        0.00000
    --
     0 1
     N        0.00000       -1.69013        0.00000
     H       -0.47318       -2.04913        0.81958
     H       -0.47318       -2.04913       -0.81958
     H        0.94637       -2.04913        0.00000
}

set {
    sapt_dft_functional     PBE0
    scf_type                DF
    freeze_core             true
    sapt_dft_grac_shift_a    0.116251
    sapt_dft_grac_shift_b    0.113162
    sapt_dft_do_hybrid      true
    do_ind_exch_sinf        true
    do_disp_exch_sinf       true
}

nrg = energy('sapt(DFT)')
--------------------------------------------------------------------------
  Threads set to 4 by Python driver.

  Memory set to   7.451 GiB by Python driver.

Scratch directory: /scratch2/vance/psi4/

*** tstart() called on cmpsrv002
*** at Thu Sep 19 14:16:08 2024

  SAPT does not make use of molecular symmetry, further calculations in C1 point group.

         ---------------------------------------------------------
                            SAPT(DFT) Procedure                    

                           by Daniel G. A. Smith                   
         ---------------------------------------------------------

Warning! The default value of SAPT_DFT_EXCH_DISP_SCALE_SCHEME has changed from DISP to FIXED. Please be careful comparing results with earlier versions. 

  ==> Algorithm <==

   SAPT DFT Functional             PBE0
   Monomer A GRAC Shift        0.116251
   Monomer B GRAC Shift        0.113162
   Delta HF                        True
   JK Algorithm                      DF

   Required computations:
     HF  (Dimer)
     HF  (Monomer A)
     HF  (Monomer B)
     DFT (Monomer A)
     DFT (Monomer B)

   => Libint2 <=

    Primary   basis highest AM E, G, H:  6, 6, 3
    Auxiliary basis highest AM E, G, H:  7, 7, 4
    Onebody   basis highest AM E, G, H:  -, -, -
    Solid Harmonics ordering:            Gaussian

*** tstart() called on cmpsrv002
*** at Thu Sep 19 14:16:08 2024

   => Loading Basis Set <=

    Name: THIS_BASIS
    Role: ORBITAL
    Keyword: BASIS
    atoms 1, 4-6 entry H          line    15 file /home/vance/anaconda3/envs/p4env/share/psi4/basis/def2-qzvp.gbs 
    atoms 2      entry CL         line   809 file /home/vance/anaconda3/envs/p4env/share/psi4/basis/def2-qzvp.gbs 
    atoms 3      entry N          line   242 file /home/vance/anaconda3/envs/p4env/share/psi4/basis/def2-qzvp.gbs 


         ---------------------------------------------------------
                         SAPT(DFT): delta HF Dimer                 
         ---------------------------------------------------------
                                   SCF
               by Justin Turney, Rob Parrish, Andy Simmonett
                          and Daniel G. A. Smith
                              RHF Reference
                        4 Threads,   7629 MiB Core
         ---------------------------------------------------------

  ==> Geometry <==

    Molecular point group: c1
    Full point group: Cs

    Geometry (in Angstrom), charge = 0, multiplicity = 1:

       Center              X                  Y                   Z               Mass       
    ------------   -----------------  -----------------  -----------------  -----------------
         H           -0.000000190144    -0.423312546139     0.000000000000     1.007825032230
         CL          -0.000000190144     0.920037453861     0.000000000000    34.968852682000
         N           -0.000000190144    -1.800752546139     0.000000000000    14.003074004430
         H           -0.473180190144    -2.159752546139     0.819580000000     1.007825032230
         H           -0.473180190144    -2.159752546139    -0.819580000000     1.007825032230
         H            0.946369809856    -2.159752546139     0.000000000000     1.007825032230

  Running in c1 symmetry.

  Rotational constants: A =      6.22544  B =      0.18597  C =      0.18597 [cm^-1]
  Rotational constants: A = 186633.95025  B =   5575.33063  C =   5575.33014 [MHz]
  Nuclear repulsion =   53.657450430662081

  Charge       = 0
  Multiplicity = 1
  Electrons    = 28
  Nalpha       = 14
  Nbeta        = 14

  ==> Algorithm <==

  SCF Algorithm Type is DF.
  DIIS enabled.
  MOM disabled.
  Fractional occupation disabled.
  Guess Type is SAD.
  Energy threshold   = 1.00e-08
  Density threshold  = 1.00e-08
  Integral threshold = 1.00e-12

  ==> Primary Basis <==

  Basis Set: THIS_BASIS
    Blend: DEF2-QZVP
    Number of shells: 79
    Number of basis functions: 247
    Number of Cartesian functions: 298
    Spherical Harmonics?: true
    Max angular momentum: 4

   => Loading Basis Set <=

    Name: (THIS_BASIS AUX)
    Role: JKFIT
    Keyword: DF_BASIS_SCF
    atoms 1, 4-6 entry H          line    18 file /home/vance/anaconda3/envs/p4env/share/psi4/basis/def2-universal-jkfit.gbs 
    atoms 2      entry CL         line   986 file /home/vance/anaconda3/envs/p4env/share/psi4/basis/def2-universal-jkfit.gbs 
    atoms 3      entry N          line   258 file /home/vance/anaconda3/envs/p4env/share/psi4/basis/def2-universal-jkfit.gbs 

  ==> Integral Setup <==

  ==> DiskDFJK: Density-Fitted J/K Matrices <==

    J tasked:                  Yes
    K tasked:                  Yes
    wK tasked:                  No
    OpenMP threads:              4
    Integrals threads:           4
    Memory [MiB]:             5722
    Algorithm:                Core
    Integral Cache:           SAVE
    Schwarz Cutoff:          1E-12
    Fitting Condition:       1E-10

   => Auxiliary Basis Set <=

  Basis Set: (THIS_BASIS AUX)
    Blend: DEF2-UNIVERSAL-JKFIT
    Number of shells: 87
    Number of basis functions: 277
    Number of Cartesian functions: 328
    Spherical Harmonics?: true
    Max angular momentum: 4

  Minimum eigenvalue in the overlap matrix is 1.0292610383E-04.
  Reciprocal condition number of the overlap matrix is 1.1596202189E-05.
    Using symmetric orthogonalization.

  ==> Pre-Iterations <==

  SCF Guess: Superposition of Atomic Densities via on-the-fly atomic UHF (no occupation information).

   -------------------------
    Irrep   Nso     Nmo    
   -------------------------
     A        247     247 
   -------------------------
    Total     247     247
   -------------------------

  ==> Iterations <==

                           Total Energy        Delta E     RMS |[F,P]|

   @DF-RHF iter SAD:  -515.87335706337717   -5.15873e+02   0.00000e+00 
   @DF-RHF iter   1:  -516.24402401352677   -3.70667e-01   1.80319e-03 DIIS/ADIIS
   @DF-RHF iter   2:  -516.31633522124741   -7.23112e-02   8.35173e-04 DIIS/ADIIS
   @DF-RHF iter   3:  -516.33105837236008   -1.47232e-02   1.31118e-04 DIIS/ADIIS
   @DF-RHF iter   4:  -516.33189703404128   -8.38662e-04   5.32760e-05 DIIS
   @DF-RHF iter   5:  -516.33198935959695   -9.23256e-05   1.02364e-05 DIIS
   @DF-RHF iter   6:  -516.33199754479847   -8.18520e-06   2.32836e-06 DIIS
   @DF-RHF iter   7:  -516.33199805671848   -5.11920e-07   6.77126e-07 DIIS
   @DF-RHF iter   8:  -516.33199810011445   -4.33960e-08   1.83825e-07 DIIS
   @DF-RHF iter   9:  -516.33199810206054   -1.94609e-09   4.69781e-08 DIIS
   @DF-RHF iter  10:  -516.33199810224164   -1.81103e-10   8.55995e-09 DIIS
  Energy and wave function converged.


  ==> Post-Iterations <==

    Orbital Energies [Eh]
    ---------------------

    Doubly Occupied:                                                      

       1A   -104.756165     2A    -15.608405     3A    -10.484455  
       4A     -7.951442     5A     -7.950300     6A     -7.950300  
       7A     -1.225971     8A     -1.037175     9A     -0.703437  
      10A     -0.703434    11A     -0.648469    12A     -0.423155  
      13A     -0.406717    14A     -0.406717  

    Virtual:                                                              

      15A      0.077389    16A      0.132107    17A      0.132107  
      18A      0.190016    19A      0.251310    20A      0.268723  
      21A      0.268723    22A      0.337654    23A      0.337654  
      24A      0.343516    25A      0.431797    26A      0.450731  
      27A      0.450731    28A      0.463833    29A      0.470763  
      30A      0.470764    31A      0.548736    32A      0.548736  
      33A      0.622177    34A      0.622177    35A      0.671438  
      36A      0.685307    37A      0.822881    38A      0.825836  
      39A      0.825836    40A      0.870820    41A      0.913817  
      42A      0.936894    43A      0.936894    44A      1.017695  
      45A      1.017696    46A      1.086452    47A      1.111516  
      48A      1.111516    49A      1.169179    50A      1.284854  
      51A      1.297415    52A      1.297416    53A      1.329107  
      54A      1.361876    55A      1.361877    56A      1.437583  
      57A      1.437583    58A      1.474311    59A      1.487309  
      60A      1.487309    61A      1.518771    62A      1.518771  
      63A      1.545999    64A      1.593237    65A      1.593237  
      66A      1.617446    67A      1.620867    68A      1.809266  
      69A      1.879852    70A      1.879853    71A      2.035583  
      72A      2.057635    73A      2.057636    74A      2.241202  
      75A      2.243944    76A      2.243945    77A      2.289568  
      78A      2.335306    79A      2.349028    80A      2.349031  
      81A      2.505905    82A      2.505906    83A      2.514185  
      84A      2.514187    85A      2.558514    86A      2.602797  
      87A      2.602799    88A      2.656251    89A      2.656252  
      90A      2.703888    91A      2.814418    92A      2.822131  
      93A      2.822133    94A      2.903810    95A      2.944540  
      96A      3.037279    97A      3.037279    98A      3.132926  
      99A      3.132932   100A      3.184879   101A      3.186347  
     102A      3.224546   103A      3.224547   104A      3.281985  
     105A      3.301400   106A      3.301400   107A      3.500931  
     108A      3.597089   109A      3.665529   110A      3.665530  
     111A      3.742752   112A      3.742753   113A      3.888323  
     114A      3.906204   115A      3.906207   116A      3.995449  
     117A      4.000288   118A      4.017937   119A      4.017939  
     120A      4.026028   121A      4.026028   122A      4.086232  
     123A      4.105270   124A      4.152554   125A      4.152558  
     126A      4.290794   127A      4.332648   128A      4.332649  
     129A      4.368019   130A      4.368020   131A      4.383451  
     132A      4.384855   133A      4.494419   134A      4.494420  
     135A      4.508413   136A      4.590598   137A      4.590600  
     138A      4.661395   139A      4.788133   140A      4.788134  
     141A      4.955288   142A      5.294396   143A      5.294397  
     144A      5.467135   145A      5.467143   146A      5.586372  
     147A      5.872283   148A      6.145122   149A      6.152320  
     150A      6.195928   151A      6.195931   152A      6.248164  
     153A      6.248169   154A      6.272598   155A      6.346149  
     156A      6.346158   157A      6.626279   158A      6.702104  
     159A      6.702105   160A      6.735602   161A      6.846566  
     162A      7.093049   163A      7.093053   164A      7.234587  
     165A      7.273981   166A      7.273981   167A      7.412554  
     168A      7.412559   169A      7.436408   170A      7.579789  
     171A      7.579789   172A      7.624078   173A      7.624082  
     174A      7.647348   175A      7.688977   176A      7.721105  
     177A      7.721106   178A      7.996556   179A      7.996557  
     180A      8.001585   181A      8.089703   182A      8.089703  
     183A      8.227539   184A      8.259352   185A      8.330922  
     186A      8.330928   187A      8.428701   188A      8.465365  
     189A      8.482426   190A      8.482427   191A      8.607900  
     192A      8.610898   193A      8.610904   194A      8.619878  
     195A      8.681407   196A      8.681409   197A      8.731207  
     198A      8.881257   199A      8.881267   200A      8.973056  
     201A      9.052420   202A      9.052427   203A      9.110475  
     204A      9.156790   205A      9.156793   206A      9.290901  
     207A      9.290904   208A      9.330839   209A      9.739126  
     210A      9.801117   211A      9.801119   212A      9.990142  
     213A     10.115479   214A     10.115485   215A     10.238784  
     216A     10.280431   217A     10.280440   218A     10.535787  
     219A     10.535791   220A     10.572486   221A     11.059271  
     222A     11.361352   223A     11.361352   224A     11.504420  
     225A     11.520954   226A     11.520954   227A     11.589286  
     228A     11.701686   229A     11.701687   230A     12.034895  
     231A     12.090765   232A     12.090770   233A     12.293883  
     234A     12.293897   235A     12.412418   236A     12.924477  
     237A     14.850685   238A     14.850685   239A     15.784981  
     240A     30.135637   241A     39.521863   242A     43.369269  
     243A     43.369269   244A     43.567707   245A    100.536415  
     246A    200.688153   247A    530.927287  

    Final Occupation by Irrep:
              A 
    DOCC [    14 ]
    NA   [    14 ]
    NB   [    14 ]

  @DF-RHF Final Energy:  -516.33199810224164

   => Energetics <=

    Nuclear Repulsion Energy =             53.6574504306620810
    One-Electron Energy =                -819.4666090004274110
    Two-Electron Energy =                 249.4771604675237313
    Total Energy =                       -516.3319981022416414

Computation Completed


Properties will be evaluated at   0.000000,   0.000000,   0.000000 [a0]

Properties computed using the SCF density matrix


 Multipole Moments:

 ------------------------------------------------------------------------------------
     Multipole            Electronic (a.u.)      Nuclear  (a.u.)        Total (a.u.)
 ------------------------------------------------------------------------------------

 L = 1.  Multiply by 2.5417464519 to convert [e a0] to [Debye]
 Dipole X            :         -0.0000054            0.0000088            0.0000034
 Dipole Y            :          5.0196618           -7.3079513           -2.2882895
 Dipole Z            :         -0.0000000            0.0000000           -0.0000000
 Magnitude           :                                                    2.2882895

 ------------------------------------------------------------------------------------

*** tstop() called on cmpsrv002 at Thu Sep 19 14:18:56 2024
Module time:
	user time   =      11.74 seconds =       0.20 minutes
	system time =       0.97 seconds =       0.02 minutes
	total time  =        168 seconds =       2.80 minutes
Total time:
	user time   =      11.74 seconds =       0.20 minutes
	system time =       0.97 seconds =       0.02 minutes
	total time  =        168 seconds =       2.80 minutes
   => Libint2 <=

    Primary   basis highest AM E, G, H:  6, 6, 3
    Auxiliary basis highest AM E, G, H:  7, 7, 4
    Onebody   basis highest AM E, G, H:  -, -, -
    Solid Harmonics ordering:            Gaussian

*** tstart() called on cmpsrv002
*** at Thu Sep 19 14:18:56 2024

   => Loading Basis Set <=

    Name: THIS_BASIS
    Role: ORBITAL
    Keyword: BASIS
    atoms 1, 4-6 entry H          line    15 file /home/vance/anaconda3/envs/p4env/share/psi4/basis/def2-qzvp.gbs 
    atoms 2      entry CL         line   809 file /home/vance/anaconda3/envs/p4env/share/psi4/basis/def2-qzvp.gbs 
    atoms 3      entry N          line   242 file /home/vance/anaconda3/envs/p4env/share/psi4/basis/def2-qzvp.gbs 


         ---------------------------------------------------------
                       SAPT(DFT): delta HF Monomer A               
         ---------------------------------------------------------
                                   SCF
               by Justin Turney, Rob Parrish, Andy Simmonett
                          and Daniel G. A. Smith
                              RHF Reference
                        4 Threads,   7629 MiB Core
         ---------------------------------------------------------

  ==> Geometry <==

    Molecular point group: c1
    Full point group: Cs

    Geometry (in Angstrom), charge = 0, multiplicity = 1:

       Center              X                  Y                   Z               Mass       
    ------------   -----------------  -----------------  -----------------  -----------------
         H           -0.000000190144    -0.423312546139     0.000000000000     1.007825032230
         CL          -0.000000190144     0.920037453861     0.000000000000    34.968852682000
      Gh(N)          -0.000000190144    -1.800752546139     0.000000000000    14.003074004430
      Gh(H)          -0.473180190144    -2.159752546139     0.819580000000     1.007825032230
      Gh(H)          -0.473180190144    -2.159752546139    -0.819580000000     1.007825032230
      Gh(H)           0.946369809856    -2.159752546139     0.000000000000     1.007825032230

  Running in c1 symmetry.

  Rotational constants: A =      6.22544  B =      0.18597  C =      0.18597 [cm^-1]
  Rotational constants: A = 186633.95025  B =   5575.33063  C =   5575.33014 [MHz]
  Nuclear repulsion =    6.696700473733578

  Charge       = 0
  Multiplicity = 1
  Electrons    = 18
  Nalpha       = 9
  Nbeta        = 9

  ==> Algorithm <==

  SCF Algorithm Type is DF.
  DIIS enabled.
  MOM disabled.
  Fractional occupation disabled.
  Guess Type is SAD.
  Energy threshold   = 1.00e-08
  Density threshold  = 1.00e-08
  Integral threshold = 1.00e-12

  ==> Primary Basis <==

  Basis Set: THIS_BASIS
    Blend: DEF2-QZVP
    Number of shells: 79
    Number of basis functions: 247
    Number of Cartesian functions: 298
    Spherical Harmonics?: true
    Max angular momentum: 4

   => Loading Basis Set <=

    Name: (THIS_BASIS AUX)
    Role: JKFIT
    Keyword: DF_BASIS_SCF
    atoms 1, 4-6 entry H          line    18 file /home/vance/anaconda3/envs/p4env/share/psi4/basis/def2-universal-jkfit.gbs 
    atoms 2      entry CL         line   986 file /home/vance/anaconda3/envs/p4env/share/psi4/basis/def2-universal-jkfit.gbs 
    atoms 3      entry N          line   258 file /home/vance/anaconda3/envs/p4env/share/psi4/basis/def2-universal-jkfit.gbs 

  ==> Integral Setup <==

  ==> DiskDFJK: Density-Fitted J/K Matrices <==

    J tasked:                  Yes
    K tasked:                  Yes
    wK tasked:                  No
    OpenMP threads:              4
    Integrals threads:           4
    Memory [MiB]:             5722
    Algorithm:                Core
    Integral Cache:           SAVE
    Schwarz Cutoff:          1E-12
    Fitting Condition:       1E-10

   => Auxiliary Basis Set <=

  Basis Set: (THIS_BASIS AUX)
    Blend: DEF2-UNIVERSAL-JKFIT
    Number of shells: 87
    Number of basis functions: 277
    Number of Cartesian functions: 328
    Spherical Harmonics?: true
    Max angular momentum: 4

  Minimum eigenvalue in the overlap matrix is 1.0292610383E-04.
  Reciprocal condition number of the overlap matrix is 1.1596202189E-05.
    Using symmetric orthogonalization.

  ==> Pre-Iterations <==

  SCF Guess: Superposition of Atomic Densities via on-the-fly atomic UHF (no occupation information).

   -------------------------
    Irrep   Nso     Nmo    
   -------------------------
     A        247     247 
   -------------------------
    Total     247     247
   -------------------------

  ==> Iterations <==

                           Total Energy        Delta E     RMS |[F,P]|

   @DF-RHF iter SAD:  -459.87337457501985   -4.59873e+02   0.00000e+00 
   @DF-RHF iter   1:  -460.08529473826547   -2.11920e-01   8.93193e-04 DIIS/ADIIS
   @DF-RHF iter   2:  -460.10554550002206   -2.02508e-02   3.75781e-04 DIIS/ADIIS
   @DF-RHF iter   3:  -460.10842787148601   -2.88237e-03   6.55665e-05 DIIS
   @DF-RHF iter   4:  -460.10878099887844   -3.53127e-04   2.09236e-05 DIIS
   @DF-RHF iter   5:  -460.10882659641794   -4.55975e-05   3.64555e-06 DIIS
   @DF-RHF iter   6:  -460.10882777765562   -1.18124e-06   7.95178e-07 DIIS
   @DF-RHF iter   7:  -460.10882780188325   -2.42276e-08   1.72395e-07 DIIS
   @DF-RHF iter   8:  -460.10882780391057   -2.02732e-09   3.40129e-08 DIIS
   @DF-RHF iter   9:  -460.10882780398993   -7.93534e-11   4.93570e-09 DIIS
  Energy and wave function converged.


  ==> Post-Iterations <==

    Orbital Energies [Eh]
    ---------------------

    Doubly Occupied:                                                      

       1A   -104.852048     2A    -10.575783     3A     -8.042890  
       4A     -8.041263     5A     -8.041263     6A     -1.104847  
       7A     -0.611041     8A     -0.475181     9A     -0.475181  

    Virtual:                                                              

      10A      0.058267    11A      0.136705    12A      0.136705  
      13A      0.145466    14A      0.210381    15A      0.261940  
      16A      0.287585    17A      0.287585    18A      0.308761  
      19A      0.308761    20A      0.324308    21A      0.449693  
      22A      0.474989    23A      0.474989    24A      0.496547  
      25A      0.496547    26A      0.531574    27A      0.531574  
      28A      0.609011    29A      0.682799    30A      0.682801  
      31A      0.712618    32A      0.768069    33A      0.866532  
      34A      0.882009    35A      0.882009    36A      0.936617  
      37A      0.997152    38A      0.998403    39A      0.998404  
      40A      1.064513    41A      1.085302    42A      1.085302  
      43A      1.189435    44A      1.189435    45A      1.220983  
      46A      1.311291    47A      1.311292    48A      1.350742  
      49A      1.350743    50A      1.372110    51A      1.417708  
      52A      1.424590    53A      1.424590    54A      1.450147  
      55A      1.450148    56A      1.480113    57A      1.545613  
      58A      1.545613    59A      1.561706    60A      1.569064  
      61A      1.574407    62A      1.574408    63A      1.687343  
      64A      1.866882    65A      2.039287    66A      2.039288  
      67A      2.087104    68A      2.205930    69A      2.205934  
      70A      2.344703    71A      2.344703    72A      2.377681  
      73A      2.451175    74A      2.451178    75A      2.461331  
      76A      2.519172    77A      2.520566    78A      2.520566  
      79A      2.666769    80A      2.666770    81A      2.670091  
      82A      2.760202    83A      2.762644    84A      2.762646  
      85A      2.859894    86A      2.859895    87A      2.905195  
      88A      2.905196    89A      2.906569    90A      2.939119  
      91A      3.086971    92A      3.086972    93A      3.111661  
      94A      3.201392    95A      3.201393    96A      3.208352  
      97A      3.424876    98A      3.438763    99A      3.461786  
     100A      3.461787   101A      3.592752   102A      3.592752  
     103A      3.634562   104A      3.641712   105A      3.641713  
     106A      3.695444   107A      3.695444   108A      3.697299  
     109A      3.821539   110A      3.821544   111A      3.921757  
     112A      3.927737   113A      3.937287   114A      3.961862  
     115A      3.961862   116A      4.161666   117A      4.161667  
     118A      4.211373   119A      4.243391   120A      4.243391  
     121A      4.275033   122A      4.275033   123A      4.311567  
     124A      4.315959   125A      4.329780   126A      4.349413  
     127A      4.349414   128A      4.365733   129A      4.524039  
     130A      4.538643   131A      4.538650   132A      4.632034  
     133A      4.765869   134A      4.765870   135A      5.009673  
     136A      5.022394   137A      5.022401   138A      5.352343  
     139A      5.352345   140A      5.522434   141A      5.955586  
     142A      6.026035   143A      6.026038   144A      6.124444  
     145A      6.141621   146A      6.431370   147A      6.431373  
     148A      6.508758   149A      6.508761   150A      6.550886  
     151A      6.741177   152A      6.741187   153A      6.933827  
     154A      6.933828   155A      6.942091   156A      7.281317  
     157A      7.281326   158A      7.400058   159A      7.403120  
     160A      7.418621   161A      7.418622   162A      7.655384  
     163A      7.730306   164A      7.763987   165A      7.763988  
     166A      7.894018   167A      7.894021   168A      8.058029  
     169A      8.124829   170A      8.125265   171A      8.125268  
     172A      8.308433   173A      8.308436   174A      8.378942  
     175A      8.438206   176A      8.438208   177A      8.460145  
     178A      8.683442   179A      8.683443   180A      8.744786  
     181A      8.752700   182A      8.752703   183A      8.772398  
     184A      8.914258   185A      8.914258   186A      8.956202  
     187A      8.960157   188A      8.960165   189A      8.983764  
     190A      9.088468   191A      9.088469   192A      9.145499  
     193A      9.273819   194A      9.373578   195A      9.420679  
     196A      9.420687   197A      9.492142   198A      9.577254  
     199A      9.577258   200A      9.767803   201A      9.915367  
     202A      9.915375   203A      9.963913   204A     10.188069  
     205A     10.188073   206A     10.217790   207A     10.457425  
     208A     10.457431   209A     10.574719   210A     10.988679  
     211A     10.988684   212A     11.050207   213A     11.050212  
     214A     11.172566   215A     11.281011   216A     11.281011  
     217A     11.346216   218A     11.471941   219A     11.471941  
     220A     11.856266   221A     11.856277   222A     12.113167  
     223A     12.266808   224A     12.375963   225A     12.375975  
     226A     13.104238   227A     13.668089   228A     13.862118  
     229A     13.862124   230A     14.194498   231A     14.307174  
     232A     14.307178   233A     14.596951   234A     14.596959  
     235A     14.958787   236A     16.444493   237A     18.282246  
     238A     18.282259   239A     25.625836   240A     30.053222  
     241A     43.276901   242A     43.276901   243A     43.472800  
     244A     70.401643   245A    100.444070   246A    318.841049  
     247A    530.832169  

    Final Occupation by Irrep:
              A 
    DOCC [     9 ]
    NA   [     9 ]
    NB   [     9 ]

  @DF-RHF Final Energy:  -460.10882780398993

   => Energetics <=

    Nuclear Repulsion Energy =              6.6967004737335785
    One-Electron Energy =                -649.1720645821617381
    Two-Electron Energy =                 182.3665363044382275
    Total Energy =                       -460.1088278039899251

Computation Completed


Properties will be evaluated at   0.000000,   0.000000,   0.000000 [a0]

Properties computed using the SCF density matrix


 Multipole Moments:

 ------------------------------------------------------------------------------------
     Multipole            Electronic (a.u.)      Nuclear  (a.u.)        Total (a.u.)
 ------------------------------------------------------------------------------------

 L = 1.  Multiply by 2.5417464519 to convert [e a0] to [Debye]
 Dipole X            :          0.0000065           -0.0000065           -0.0000000
 Dipole Y            :        -29.2572514           28.7565750           -0.5006764
 Dipole Z            :          0.0000000            0.0000000            0.0000000
 Magnitude           :                                                    0.5006764

 ------------------------------------------------------------------------------------

*** tstop() called on cmpsrv002 at Thu Sep 19 14:20:22 2024
Module time:
	user time   =      10.20 seconds =       0.17 minutes
	system time =       0.70 seconds =       0.01 minutes
	total time  =         86 seconds =       1.43 minutes
Total time:
	user time   =      21.94 seconds =       0.37 minutes
	system time =       1.67 seconds =       0.03 minutes
	total time  =        254 seconds =       4.23 minutes
   => Libint2 <=

    Primary   basis highest AM E, G, H:  6, 6, 3
    Auxiliary basis highest AM E, G, H:  7, 7, 4
    Onebody   basis highest AM E, G, H:  -, -, -
    Solid Harmonics ordering:            Gaussian

*** tstart() called on cmpsrv002
*** at Thu Sep 19 14:20:22 2024

   => Loading Basis Set <=

    Name: THIS_BASIS
    Role: ORBITAL
    Keyword: BASIS
    atoms 1, 4-6 entry H          line    15 file /home/vance/anaconda3/envs/p4env/share/psi4/basis/def2-qzvp.gbs 
    atoms 2      entry CL         line   809 file /home/vance/anaconda3/envs/p4env/share/psi4/basis/def2-qzvp.gbs 
    atoms 3      entry N          line   242 file /home/vance/anaconda3/envs/p4env/share/psi4/basis/def2-qzvp.gbs 


         ---------------------------------------------------------
                       SAPT(DFT): delta HF Monomer B               
         ---------------------------------------------------------
                                   SCF
               by Justin Turney, Rob Parrish, Andy Simmonett
                          and Daniel G. A. Smith
                              RHF Reference
                        4 Threads,   7629 MiB Core
         ---------------------------------------------------------

  ==> Geometry <==

    Molecular point group: c1
    Full point group: Cs

    Geometry (in Angstrom), charge = 0, multiplicity = 1:

       Center              X                  Y                   Z               Mass       
    ------------   -----------------  -----------------  -----------------  -----------------
      Gh(H)          -0.000000190144    -0.423312546139     0.000000000000     1.007825032230
      Gh(CL)         -0.000000190144     0.920037453861     0.000000000000    34.968852682000
         N           -0.000000190144    -1.800752546139     0.000000000000    14.003074004430
         H           -0.473180190144    -2.159752546139     0.819580000000     1.007825032230
         H           -0.473180190144    -2.159752546139    -0.819580000000     1.007825032230
         H            0.946369809856    -2.159752546139     0.000000000000     1.007825032230

  Running in c1 symmetry.

  Rotational constants: A =      6.22544  B =      0.18597  C =      0.18597 [cm^-1]
  Rotational constants: A = 186633.95025  B =   5575.33063  C =   5575.33014 [MHz]
  Nuclear repulsion =   11.947581311396526

  Charge       = 0
  Multiplicity = 1
  Electrons    = 10
  Nalpha       = 5
  Nbeta        = 5

  ==> Algorithm <==

  SCF Algorithm Type is DF.
  DIIS enabled.
  MOM disabled.
  Fractional occupation disabled.
  Guess Type is SAD.
  Energy threshold   = 1.00e-08
  Density threshold  = 1.00e-08
  Integral threshold = 1.00e-12

  ==> Primary Basis <==

  Basis Set: THIS_BASIS
    Blend: DEF2-QZVP
    Number of shells: 79
    Number of basis functions: 247
    Number of Cartesian functions: 298
    Spherical Harmonics?: true
    Max angular momentum: 4

   => Loading Basis Set <=

    Name: (THIS_BASIS AUX)
    Role: JKFIT
    Keyword: DF_BASIS_SCF
    atoms 1, 4-6 entry H          line    18 file /home/vance/anaconda3/envs/p4env/share/psi4/basis/def2-universal-jkfit.gbs 
    atoms 2      entry CL         line   986 file /home/vance/anaconda3/envs/p4env/share/psi4/basis/def2-universal-jkfit.gbs 
    atoms 3      entry N          line   258 file /home/vance/anaconda3/envs/p4env/share/psi4/basis/def2-universal-jkfit.gbs 

  ==> Integral Setup <==

  ==> DiskDFJK: Density-Fitted J/K Matrices <==

    J tasked:                  Yes
    K tasked:                  Yes
    wK tasked:                  No
    OpenMP threads:              4
    Integrals threads:           4
    Memory [MiB]:             5722
    Algorithm:                Core
    Integral Cache:           SAVE
    Schwarz Cutoff:          1E-12
    Fitting Condition:       1E-10

   => Auxiliary Basis Set <=

  Basis Set: (THIS_BASIS AUX)
    Blend: DEF2-UNIVERSAL-JKFIT
    Number of shells: 87
    Number of basis functions: 277
    Number of Cartesian functions: 328
    Spherical Harmonics?: true
    Max angular momentum: 4

  Minimum eigenvalue in the overlap matrix is 1.0292610383E-04.
  Reciprocal condition number of the overlap matrix is 1.1596202189E-05.
    Using symmetric orthogonalization.

  ==> Pre-Iterations <==

  SCF Guess: Superposition of Atomic Densities via on-the-fly atomic UHF (no occupation information).

   -------------------------
    Irrep   Nso     Nmo    
   -------------------------
     A        247     247 
   -------------------------
    Total     247     247
   -------------------------

  ==> Iterations <==

                           Total Energy        Delta E     RMS |[F,P]|

   @DF-RHF iter SAD:   -55.65241047690731   -5.56524e+01   0.00000e+00 
   @DF-RHF iter   1:   -56.12998992765701   -4.77579e-01   1.85961e-03 DIIS/ADIIS
   @DF-RHF iter   2:   -56.19692767893562   -6.69378e-02   1.07363e-03 DIIS/ADIIS
   @DF-RHF iter   3:   -56.22387859328701   -2.69509e-02   9.95710e-05 DIIS
   @DF-RHF iter   4:   -56.22450797147738   -6.29378e-04   1.85317e-05 DIIS
   @DF-RHF iter   5:   -56.22452858887993   -2.06174e-05   3.45956e-06 DIIS
   @DF-RHF iter   6:   -56.22452980433398   -1.21545e-06   8.67282e-07 DIIS
   @DF-RHF iter   7:   -56.22452988495136   -8.06174e-08   1.91019e-07 DIIS
   @DF-RHF iter   8:   -56.22452988909994   -4.14858e-09   3.00052e-08 DIIS
   @DF-RHF iter   9:   -56.22452988920186   -1.01920e-10   8.31873e-09 DIIS
  Energy and wave function converged.


  ==> Post-Iterations <==

    Orbital Energies [Eh]
    ---------------------

    Doubly Occupied:                                                      

       1A    -15.538858     2A     -1.139429     3A     -0.630691  
       4A     -0.630688     5A     -0.425290  

    Virtual:                                                              

       6A      0.099776     7A      0.126281     8A      0.156375  
       9A      0.156375    10A      0.221290    11A      0.221290  
      12A      0.261120    13A      0.328394    14A      0.328395  
      15A      0.331004    16A      0.400952    17A      0.504630  
      18A      0.521033    19A      0.521034    20A      0.545150  
      21A      0.545151    22A      0.635747    23A      0.712378  
      24A      0.757046    25A      0.757046    26A      0.764867  
      27A      0.764867    28A      0.826168    29A      0.826168  
      30A      0.868855    31A      0.886878    32A      0.906571  
      33A      0.906572    34A      0.936434    35A      0.964646  
      36A      1.044289    37A      1.044289    38A      1.080524  
      39A      1.080525    40A      1.129634    41A      1.224871  
      42A      1.224871    43A      1.306806    44A      1.341899  
      45A      1.368419    46A      1.368421    47A      1.401443  
      48A      1.547074    49A      1.551977    50A      1.551978  
      51A      1.774389    52A      1.806663    53A      1.806663  
      54A      1.819798    55A      1.823469    56A      1.939261  
      57A      1.939262    58A      2.016953    59A      2.095646  
      60A      2.095646    61A      2.212847    62A      2.212847  
      63A      2.278848    64A      2.344074    65A      2.356917  
      66A      2.356917    67A      2.396310    68A      2.422733  
      69A      2.422735    70A      2.437492    71A      2.442365  
      72A      2.442365    73A      2.484215    74A      2.484216  
      75A      2.585819    76A      2.585819    77A      2.622478  
      78A      2.632843    79A      2.632844    80A      2.707357  
      81A      2.707359    82A      2.735777    83A      2.805330  
      84A      2.927816    85A      2.927818    86A      2.932498  
      87A      2.932498    88A      2.949207    89A      3.033430  
      90A      3.188534    91A      3.188539    92A      3.197374  
      93A      3.241077    94A      3.277305    95A      3.277308  
      96A      3.383051    97A      3.383056    98A      3.420135  
      99A      3.466355   100A      3.550722   101A      3.550724  
     102A      3.766914   103A      3.882983   104A      3.984718  
     105A      3.984720   106A      4.164608   107A      4.201640  
     108A      4.325347   109A      4.325352   110A      4.371690  
     111A      4.371696   112A      4.559674   113A      4.560913  
     114A      4.577442   115A      4.577442   116A      4.640361  
     117A      4.669985   118A      4.669987   119A      4.728609  
     120A      4.860116   121A      4.860116   122A      5.348956  
     123A      5.404143   124A      5.404144   125A      5.511751  
     126A      5.511758   127A      5.679417   128A      5.679417  
     129A      5.790147   130A      5.844793   131A      5.846185  
     132A      5.857719   133A      5.857719   134A      5.957153  
     135A      6.017697   136A      6.017697   137A      6.280492  
     138A      6.280495   139A      6.305628   140A      6.305633  
     141A      6.332481   142A      6.335369   143A      6.431187  
     144A      6.431191   145A      6.431341   146A      6.457725  
     147A      6.460983   148A      6.460987   149A      6.522346  
     150A      6.724761   151A      6.724763   152A      6.748317  
     153A      6.801845   154A      6.952343   155A      6.952344  
     156A      7.063067   157A      7.227377   158A      7.259295  
     159A      7.259302   160A      7.303507   161A      7.518237  
     162A      7.518241   163A      7.584721   164A      7.584723  
     165A      7.668509   166A      7.668510   167A      7.711166  
     168A      7.711169   169A      7.711315   170A      7.857445  
     171A      8.016498   172A      8.016502   173A      8.041303  
     174A      8.147744   175A      8.147745   176A      8.224292  
     177A      8.296535   178A      8.366476   179A      8.366477  
     180A      8.488112   181A      8.488114   182A      8.535206  
     183A      8.538790   184A      8.616615   185A      8.666628  
     186A      8.666630   187A      8.691307   188A      8.800833  
     189A      8.931852   190A      8.931853   191A      9.007431  
     192A      9.007437   193A      9.067417   194A      9.067419  
     195A      9.153304   196A      9.254240   197A      9.254244  
     198A      9.287737   199A      9.414555   200A      9.414562  
     201A      9.809971   202A      9.809973   203A      9.877542  
     204A      9.957954   205A      9.957955   206A     10.229274  
     207A     10.234604   208A     10.234610   209A     10.313444  
     210A     10.347068   211A     10.510969   212A     10.510971  
     213A     10.702826   214A     10.702826   215A     10.711998  
     216A     11.629940   217A     11.760551   218A     11.760552  
     219A     12.079851   220A     12.162010   221A     12.162016  
     222A     12.211171   223A     12.370268   224A     12.370281  
     225A     12.481023   226A     13.153487   227A     14.920015  
     228A     14.920016   229A     15.621192   230A     15.875287  
     231A     21.742941   232A     21.742941   233A     21.756539  
     234A     21.756539   235A     21.913410   236A     21.913410  
     237A     22.054297   238A     22.727317   239A     35.910491  
     240A     39.598845   241A     85.753291   242A    118.211002  
     243A    118.211002   244A    118.258139   245A    200.756550  
     246A    234.253923   247A   1052.276070  

    Final Occupation by Irrep:
              A 
    DOCC [     5 ]
    NA   [     5 ]
    NB   [     5 ]

  @DF-RHF Final Energy:   -56.22452988920186

   => Energetics <=

    Nuclear Repulsion Energy =             11.9475813113965259
    One-Electron Energy =                 -99.6143081435292146
    Two-Electron Energy =                  31.4421969429308348
    Total Energy =                        -56.2245298892018610

Computation Completed


Properties will be evaluated at   0.000000,   0.000000,   0.000000 [a0]

Properties computed using the SCF density matrix


 Multipole Moments:

 ------------------------------------------------------------------------------------
     Multipole            Electronic (a.u.)      Nuclear  (a.u.)        Total (a.u.)
 ------------------------------------------------------------------------------------

 L = 1.  Multiply by 2.5417464519 to convert [e a0] to [Debye]
 Dipole X            :         -0.0000126            0.0000153            0.0000027
 Dipole Y            :         35.4509132          -36.0645264           -0.6136131
 Dipole Z            :         -0.0000000            0.0000000           -0.0000000
 Magnitude           :                                                    0.6136131

 ------------------------------------------------------------------------------------

*** tstop() called on cmpsrv002 at Thu Sep 19 14:21:36 2024
Module time:
	user time   =       8.88 seconds =       0.15 minutes
	system time =       0.67 seconds =       0.01 minutes
	total time  =         74 seconds =       1.23 minutes
Total time:
	user time   =      30.82 seconds =       0.51 minutes
	system time =       2.34 seconds =       0.04 minutes
	total time  =        328 seconds =       5.47 minutes

         ---------------------------------------------------------
                        SAPT(DFT): delta HF Segment                

                   by Daniel G. A. Smith and Rob Parrish           
         ---------------------------------------------------------


  ==> Preparing SAPT Data Cache <== 

  ==> DiskDFJK: Density-Fitted J/K Matrices <==

    J tasked:                  Yes
    K tasked:                  Yes
    wK tasked:                  No
    OpenMP threads:              4
    Integrals threads:           4
    Memory [MiB]:             5722
    Algorithm:                Core
    Integral Cache:           SAVE
    Schwarz Cutoff:          1E-12
    Fitting Condition:       1E-10

   => Auxiliary Basis Set <=

  Basis Set: (THIS_BASIS AUX)
    Blend: DEF2-UNIVERSAL-JKFIT
    Number of shells: 87
    Number of basis functions: 277
    Number of Cartesian functions: 328
    Spherical Harmonics?: true
    Max angular momentum: 4


  ==> E10 Electostatics <== 

    Elst10,r                        -69.08037777 [mEh]

  ==> E10 Exchange <== 

    Exch10(S^2)                     117.96503435 [mEh]
    Exch10                          128.13540531 [mEh]

  ==> E20 Induction <== 

   => Uncoupled Induction <= 

    Ind20,u (A<-B)                  -23.14235075 [mEh]
    Ind20,u (A->B)                  -38.08121433 [mEh]
    Ind20,u                         -61.22356508 [mEh]
    Exch-Ind20,u (A<-B)              17.11355602 [mEh]
    Exch-Ind20,u (A->B)              16.78171419 [mEh]
    Exch-Ind20,u                     33.89527021 [mEh]
    Exch-Ind20,u (A<-B) (S^inf)      20.55148068 [mEh]
    Exch-Ind20,u (A->B) (S^inf)      20.76831375 [mEh]
    Exch-Ind20,u (S^inf)             41.31979443 [mEh]

   => Coupled Induction <= 

   ---------------------------------------------------
              SAPT Coupled Induction Solver           
   ---------------------------------------------------
    Maxiter             =          20
    Convergence         =   1.000E-06
   ---------------------------------------------------
     Iter       (A<-B)           (B->A)      Time [s]
   ---------------------------------------------------
    Guess    1.204024e-01     1.555735e-01          0
        1    3.907509e-02     5.233508e-02          0
        2    6.818394e-03     1.394927e-02          0
        3    1.621710e-03     3.483826e-03          0
        4    5.556195e-04     6.439317e-04          0
        5    1.265040e-04     1.156786e-04          0
        6    3.336101e-05     1.708199e-05          0
        7    5.909343e-06     2.157588e-06          0
        8    4.413660e-07*    5.672627e-07*         0
   ---------------------------------------------------

    Ind20,r (A<-B)                  -27.41975670 [mEh]
    Ind20,r (A->B)                  -47.69323859 [mEh]
    Ind20,r                         -75.11299529 [mEh]
    Exch-Ind20,r (A<-B)              20.95645726 [mEh]
    Exch-Ind20,r (A->B)              22.97135378 [mEh]
    Exch-Ind20,r                     43.92781104 [mEh]
    Exch-Ind20,r (A<-B) (S^inf)      25.29255222 [mEh]
    Exch-Ind20,r (A->B) (S^inf)      28.64424331 [mEh]
    Exch-Ind20,r (S^inf)             53.93679553 [mEh]

   Partial SAPT(HF) Results, to compute Delta HF (dHF)
  ---------------------------------------------------------------------------------------------------------
    Electrostatics                  -69.08037777 [mEh]    -43.34859150 [kcal/mol]   -181.37050685 [kJ/mol]
      Elst10,r                      -69.08037777 [mEh]    -43.34859150 [kcal/mol]   -181.37050685 [kJ/mol]

    Exchange                        128.13540531 [mEh]     80.40618076 [kcal/mol]    336.41946030 [kJ/mol]
      Exch10                        128.13540531 [mEh]     80.40618076 [kcal/mol]    336.41946030 [kJ/mol]
      Exch10(S^2)                   117.96503435 [mEh]     74.02417663 [kcal/mol]    309.71715500 [kJ/mol]

    Induction (no dHF)              -31.18518424 [mEh]    -19.56899855 [kcal/mol]    -81.87668995 [kJ/mol]
      Ind20,r                       -75.11299529 [mEh]    -47.13411615 [kcal/mol]   -197.20914195 [kJ/mol]
      Exch-Ind20,r                   43.92781104 [mEh]     27.56511759 [kcal/mol]    115.33245200 [kJ/mol]
      Induction (A<-B) (no dHF)      -6.46329943 [mEh]     -4.05578163 [kcal/mol]    -16.96939033 [kJ/mol]
      Induction (A->B) (no dHF)     -24.72188481 [mEh]    -15.51321693 [kcal/mol]    -64.90729963 [kJ/mol]

    Subtotal SAPT(HF)                27.86984330 [mEh]     17.48859070 [kcal/mol]     73.17226350 [kJ/mol]
    Total HF                          1.35959095 [mEh]      0.85315620 [kcal/mol]      3.56960555 [kJ/mol]
    Delta HF                        -26.51025235 [mEh]    -16.63543450 [kcal/mol]    -69.60265795 [kJ/mol]
  ---------------------------------------------------------------------------------------------------------
   Partial SAPT(HF) Results, alternate SAPT0-like display
  ---------------------------------------------------------------------------------------------------------
    Induction                       -57.69543659 [mEh]    -36.20443305 [kcal/mol]   -151.47934790 [kJ/mol]
      Ind20,r                       -75.11299529 [mEh]    -47.13411615 [kcal/mol]   -197.20914195 [kJ/mol]
      Exch-Ind20,r                   43.92781104 [mEh]     27.56511759 [kcal/mol]    115.33245200 [kJ/mol]
      delta HF,r (2)                -26.51025235 [mEh]    -16.63543450 [kcal/mol]    -69.60265795 [kJ/mol]
      Induction (A<-B)              -11.95769375 [mEh]     -7.50356611 [kcal/mol]    -31.39492061 [kJ/mol]
      Induction (A->B)              -45.73774284 [mEh]    -28.70086694 [kcal/mol]   -120.08442729 [kJ/mol]
  ---------------------------------------------------------------------------------------------------------
   => Libint2 <=

    Primary   basis highest AM E, G, H:  6, 6, 3
    Auxiliary basis highest AM E, G, H:  7, 7, 4
    Onebody   basis highest AM E, G, H:  -, -, -
    Solid Harmonics ordering:            Gaussian

*** tstart() called on cmpsrv002
*** at Thu Sep 19 14:21:39 2024

   => Loading Basis Set <=

    Name: THIS_BASIS
    Role: ORBITAL
    Keyword: BASIS
    atoms 1, 4-6 entry H          line    15 file /home/vance/anaconda3/envs/p4env/share/psi4/basis/def2-qzvp.gbs 
    atoms 2      entry CL         line   809 file /home/vance/anaconda3/envs/p4env/share/psi4/basis/def2-qzvp.gbs 
    atoms 3      entry N          line   242 file /home/vance/anaconda3/envs/p4env/share/psi4/basis/def2-qzvp.gbs 


         ---------------------------------------------------------
                          SAPT(DFT): DFT Monomer A                 
         ---------------------------------------------------------
                                   SCF
               by Justin Turney, Rob Parrish, Andy Simmonett
                          and Daniel G. A. Smith
                              RKS Reference
                        4 Threads,   7629 MiB Core
         ---------------------------------------------------------

  ==> Geometry <==

    Molecular point group: c1
    Full point group: Cs

    Geometry (in Angstrom), charge = 0, multiplicity = 1:

       Center              X                  Y                   Z               Mass       
    ------------   -----------------  -----------------  -----------------  -----------------
         H           -0.000000190144    -0.423312546139     0.000000000000     1.007825032230
         CL          -0.000000190144     0.920037453861     0.000000000000    34.968852682000
      Gh(N)          -0.000000190144    -1.800752546139     0.000000000000    14.003074004430
      Gh(H)          -0.473180190144    -2.159752546139     0.819580000000     1.007825032230
      Gh(H)          -0.473180190144    -2.159752546139    -0.819580000000     1.007825032230
      Gh(H)           0.946369809856    -2.159752546139     0.000000000000     1.007825032230

  Running in c1 symmetry.

  Rotational constants: A =      6.22544  B =      0.18597  C =      0.18597 [cm^-1]
  Rotational constants: A = 186633.95025  B =   5575.33063  C =   5575.33014 [MHz]
  Nuclear repulsion =    6.696700473733578

  Charge       = 0
  Multiplicity = 1
  Electrons    = 18
  Nalpha       = 9
  Nbeta        = 9

  ==> Algorithm <==

  SCF Algorithm Type is DF.
  DIIS enabled.
  MOM disabled.
  Fractional occupation disabled.
  Guess Type is SAD.
  Energy threshold   = 1.00e-08
  Density threshold  = 1.00e-08
  Integral threshold = 1.00e-12

  ==> Primary Basis <==

  Basis Set: THIS_BASIS
    Blend: DEF2-QZVP
    Number of shells: 79
    Number of basis functions: 247
    Number of Cartesian functions: 298
    Spherical Harmonics?: true
    Max angular momentum: 4

  ==> DFT Potential <==

   => LibXC <=

    Version 6.2.2
    S. Lehtola, C. Steigemann, M. J.T. Oliveira, and M. A.L. Marques.,  SoftwareX 7, 15 (2018) (10.1016/j.softx.2017.11.002)

   => Composite Functional: PBE0 <= 

    PBE0 Hyb-GGA Exchange-Correlation Functional

    C. Adamo and V. Barone.,  J. Chem. Phys. 110, 6158 (1999) (10.1063/1.478522)
    M. Ernzerhof and G. E. Scuseria.,  J. Chem. Phys. 110, 5029 (1999) (10.1063/1.478401)

    Deriv               =              1
    GGA                 =           TRUE
    Meta                =          FALSE

    Exchange Hybrid     =           TRUE
    MP2 Hybrid          =          FALSE

   => Exchange Functionals <=

    0.7500   Perdew, Burke & Ernzerhof

   => Exact (HF) Exchange <=

    0.2500               HF 

   => Correlation Functionals <=

    1.0000   Perdew, Burke & Ernzerhof

   => LibXC Density Thresholds  <==

    XC_HYB_GGA_XC_PBEH:  1.00E-15 

   => Asymptotic Correction <=

    X Functional        =    XC_GGA_X_LB
    C Functional        =   XC_LDA_C_VWN
    Bulk Shift          =       0.116251
    GRAC Alpha          =       0.500000
    GRAC Beta           =      40.000000

   => Molecular Quadrature <=

    Radial Scheme          =       TREUTLER
    Pruning Scheme         =           NONE
    Nuclear Scheme         =       TREUTLER

    Blocking Scheme        =         OCTREE
    BS radius alpha        =              1
    Pruning alpha          =              1
    Radial Points          =             75
    Spherical Points       =            302
    Total Points           =         130131
    Total Blocks           =           1049
    Max Points             =            256
    Max Functions          =            238
    Weights Tolerance      =       1.00E-15

   => Loading Basis Set <=

    Name: (THIS_BASIS AUX)
    Role: JKFIT
    Keyword: DF_BASIS_SCF
    atoms 1, 4-6 entry H          line    18 file /home/vance/anaconda3/envs/p4env/share/psi4/basis/def2-universal-jkfit.gbs 
    atoms 2      entry CL         line   986 file /home/vance/anaconda3/envs/p4env/share/psi4/basis/def2-universal-jkfit.gbs 
    atoms 3      entry N          line   258 file /home/vance/anaconda3/envs/p4env/share/psi4/basis/def2-universal-jkfit.gbs 

  ==> Integral Setup <==

  ==> DiskDFJK: Density-Fitted J/K Matrices <==

    J tasked:                  Yes
    K tasked:                  Yes
    wK tasked:                  No
    OpenMP threads:              4
    Integrals threads:           4
    Memory [MiB]:             4947
    Algorithm:                Core
    Integral Cache:           SAVE
    Schwarz Cutoff:          1E-12
    Fitting Condition:       1E-10

   => Auxiliary Basis Set <=

  Basis Set: (THIS_BASIS AUX)
    Blend: DEF2-UNIVERSAL-JKFIT
    Number of shells: 87
    Number of basis functions: 277
    Number of Cartesian functions: 328
    Spherical Harmonics?: true
    Max angular momentum: 4

  Cached 100.0% of DFT collocation blocks in 0.756 [GiB].

  Minimum eigenvalue in the overlap matrix is 1.0292610383E-04.
  Reciprocal condition number of the overlap matrix is 1.1596202189E-05.
    Using symmetric orthogonalization.

  ==> Pre-Iterations <==

  SCF Guess: Superposition of Atomic Densities via on-the-fly atomic UHF (no occupation information).

   -------------------------
    Irrep   Nso     Nmo    
   -------------------------
     A        247     247 
   -------------------------
    Total     247     247
   -------------------------

  ==> Iterations <==

                           Total Energy        Delta E     RMS |[F,P]|

   @DF-RKS iter SAD:  -460.52654332639690   -4.60527e+02   0.00000e+00 
   @DF-RKS iter   1:  -460.65206436990889   -1.25521e-01   1.20747e-03 DIIS/ADIIS
   @DF-RKS iter   2:  -460.65626977664442   -4.20541e-03   1.00473e-03 DIIS/ADIIS
   @DF-RKS iter   3:  -460.67723309954397   -2.09633e-02   9.31917e-05 DIIS
   @DF-RKS iter   4:  -460.67750148678203   -2.68387e-04   1.84889e-05 DIIS
   @DF-RKS iter   5:  -460.67751111457454   -9.62779e-06   2.59165e-06 DIIS
   @DF-RKS iter   6:  -460.67751074682712    3.67747e-07   1.27565e-07 DIIS
   @DF-RKS iter   7:  -460.67751074232723    4.49990e-09   7.94553e-09 DIIS
  Energy and wave function converged.


  ==> Post-Iterations <==

   Electrons on quadrature grid:
      Ntotal   =   17.9999975071 ; deviation = -2.493e-06 

    Orbital Energies [Eh]
    ---------------------

    Doubly Occupied:                                                      

       1A   -101.839131     2A     -9.660372     3A     -7.395086  
       4A     -7.386749     5A     -7.386749     6A     -0.975584  
       7A     -0.595429     8A     -0.462838     9A     -0.462837  

    Virtual:                                                              

      10A     -0.130201    11A     -0.014107    12A      0.001172  
      13A      0.012594    14A      0.012621    15A      0.087902  
      16A      0.104648    17A      0.104649    18A      0.127362  
      19A      0.127367    20A      0.195764    21A      0.211005  
      22A      0.211005    23A      0.265847    24A      0.265851  
      25A      0.275353    26A      0.375054    27A      0.387636  
      28A      0.387645    29A      0.516896    30A      0.516909  
      31A      0.518287    32A      0.551138    33A      0.687446  
      34A      0.687458    35A      0.707963    36A      0.801717  
      37A      0.810020    38A      0.813858    39A      0.813877  
      40A      0.822747    41A      0.918016    42A      0.918022  
      43A      0.983146    44A      0.983150    45A      0.996614  
      46A      0.996620    47A      1.038175    48A      1.053359  
      49A      1.053359    50A      1.092586    51A      1.134220  
      52A      1.134230    53A      1.170778    54A      1.170779  
      55A      1.182628    56A      1.206544    57A      1.208078  
      58A      1.226964    59A      1.226971    60A      1.294749  
      61A      1.351632    62A      1.351634    63A      1.425137  
      64A      1.579922    65A      1.769863    66A      1.769864  
      67A      1.874190    68A      1.974310    69A      1.974316  
      70A      2.103608    71A      2.127217    72A      2.127220  
      73A      2.178072    74A      2.178075    75A      2.273815  
      76A      2.325260    77A      2.359774    78A      2.359781  
      79A      2.441948    80A      2.441948    81A      2.472344  
      82A      2.524326    83A      2.553641    84A      2.553642  
      85A      2.571824    86A      2.709084    87A      2.709088  
      88A      2.716882    89A      2.716893    90A      2.757974  
      91A      2.862311    92A      2.862324    93A      2.923688  
      94A      2.960214    95A      2.960215    96A      3.008105  
      97A      3.115785    98A      3.115786    99A      3.182889  
     100A      3.219875   101A      3.219876   102A      3.288933  
     103A      3.290689   104A      3.290689   105A      3.327467  
     106A      3.407145   107A      3.432927   108A      3.432930  
     109A      3.453765   110A      3.456623   111A      3.483829  
     112A      3.483829   113A      3.620347   114A      3.620356  
     115A      3.633216   116A      3.723558   117A      3.723560  
     118A      3.760415   119A      3.760415   120A      3.805379  
     121A      3.808045   122A      3.888529   123A      3.888531  
     124A      3.948543   125A      3.948546   126A      3.948821  
     127A      4.067228   128A      4.136454   129A      4.157412  
     130A      4.280842   131A      4.280843   132A      4.366723  
     133A      4.380536   134A      4.380546   135A      4.620546  
     136A      4.805924   137A      4.805929   138A      5.015413  
     139A      5.015418   140A      5.231960   141A      5.588581  
     142A      5.723067   143A      5.744740   144A      5.838275  
     145A      5.838280   146A      6.197088   147A      6.197093  
     148A      6.339326   149A      6.339326   150A      6.403556  
     151A      6.530673   152A      6.530682   153A      6.672889  
     154A      6.672890   155A      6.722235   156A      7.054238  
     157A      7.057000   158A      7.057005   159A      7.119735  
     160A      7.119738   161A      7.246672   162A      7.474317  
     163A      7.474320   164A      7.488291   165A      7.508014  
     166A      7.696863   167A      7.696879   168A      7.882527  
     169A      7.914732   170A      7.914759   171A      7.949630  
     172A      7.969644   173A      7.969662   174A      8.065718  
     175A      8.160585   176A      8.221097   177A      8.221098  
     178A      8.451480   179A      8.495975   180A      8.495988  
     181A      8.504840   182A      8.504844   183A      8.597693  
     184A      8.597696   185A      8.612547   186A      8.643096  
     187A      8.717959   188A      8.717964   189A      8.828533  
     190A      8.887795   191A      8.916678   192A      8.916682  
     193A      8.993346   194A      9.120830   195A      9.217951  
     196A      9.217959   197A      9.335807   198A      9.397070  
     199A      9.397075   200A      9.538157   201A      9.726877  
     202A      9.726886   203A      9.778725   204A      9.989983  
     205A      9.989988   206A     10.011846   207A     10.183017  
     208A     10.268361   209A     10.268370   210A     10.524841  
     211A     10.524842   212A     10.634012   213A     10.634012  
     214A     10.808729   215A     10.808737   216A     10.857036  
     217A     10.930268   218A     10.930272   219A     10.987397  
     220A     11.674370   221A     11.682572   222A     11.682584  
     223A     11.970933   224A     12.195263   225A     12.195275  
     226A     12.881507   227A     13.494954   228A     13.682146  
     229A     13.682153   230A     14.013056   231A     14.117439  
     232A     14.117445   233A     14.416463   234A     14.416471  
     235A     14.742451   236A     16.242153   237A     18.103097  
     238A     18.103108   239A     25.428356   240A     28.984519  
     241A     41.698560   242A     41.698560   243A     41.896278  
     244A     70.201190   245A     98.525997   246A    318.639605  
     247A    526.070832  

    Final Occupation by Irrep:
              A 
    DOCC [     9 ]
    NA   [     9 ]
    NB   [     9 ]

  @DF-RKS Final Energy:  -460.67751074232723

   => Energetics <=

    Nuclear Repulsion Energy =              6.6967004737335785
    One-Electron Energy =                -649.3448382086054380
    Two-Electron Energy =                 203.4298871335802517
    DFT Exchange-Correlation Energy =     -21.4592601410356387
    Empirical Dispersion Energy =           0.0000000000000000
    VV10 Nonlocal Energy =                  0.0000000000000000
    Total Energy =                       -460.6775107423272857

Computation Completed


Properties will be evaluated at   0.000000,   0.000000,   0.000000 [a0]

Properties computed using the SCF density matrix


 Multipole Moments:

 ------------------------------------------------------------------------------------
     Multipole            Electronic (a.u.)      Nuclear  (a.u.)        Total (a.u.)
 ------------------------------------------------------------------------------------

 L = 1.  Multiply by 2.5417464519 to convert [e a0] to [Debye]
 Dipole X            :          0.0000034           -0.0000065           -0.0000031
 Dipole Y            :        -29.2293221           28.7565750           -0.4727471
 Dipole Z            :          0.0000000            0.0000000            0.0000000
 Magnitude           :                                                    0.4727471

 ------------------------------------------------------------------------------------

*** tstop() called on cmpsrv002 at Thu Sep 19 14:23:26 2024
Module time:
	user time   =      18.76 seconds =       0.31 minutes
	system time =       1.90 seconds =       0.03 minutes
	total time  =        108 seconds =       1.80 minutes
Total time:
	user time   =      62.79 seconds =       1.05 minutes
	system time =       4.74 seconds =       0.08 minutes
	total time  =        443 seconds =       7.38 minutes
   => Libint2 <=

    Primary   basis highest AM E, G, H:  6, 6, 3
    Auxiliary basis highest AM E, G, H:  7, 7, 4
    Onebody   basis highest AM E, G, H:  -, -, -
    Solid Harmonics ordering:            Gaussian

*** tstart() called on cmpsrv002
*** at Thu Sep 19 14:23:26 2024

   => Loading Basis Set <=

    Name: THIS_BASIS
    Role: ORBITAL
    Keyword: BASIS
    atoms 1, 4-6 entry H          line    15 file /home/vance/anaconda3/envs/p4env/share/psi4/basis/def2-qzvp.gbs 
    atoms 2      entry CL         line   809 file /home/vance/anaconda3/envs/p4env/share/psi4/basis/def2-qzvp.gbs 
    atoms 3      entry N          line   242 file /home/vance/anaconda3/envs/p4env/share/psi4/basis/def2-qzvp.gbs 


         ---------------------------------------------------------
                          SAPT(DFT): DFT Monomer B                 
         ---------------------------------------------------------
                                   SCF
               by Justin Turney, Rob Parrish, Andy Simmonett
                          and Daniel G. A. Smith
                              RKS Reference
                        4 Threads,   7629 MiB Core
         ---------------------------------------------------------

  ==> Geometry <==

    Molecular point group: c1
    Full point group: Cs

    Geometry (in Angstrom), charge = 0, multiplicity = 1:

       Center              X                  Y                   Z               Mass       
    ------------   -----------------  -----------------  -----------------  -----------------
      Gh(H)          -0.000000190144    -0.423312546139     0.000000000000     1.007825032230
      Gh(CL)         -0.000000190144     0.920037453861     0.000000000000    34.968852682000
         N           -0.000000190144    -1.800752546139     0.000000000000    14.003074004430
         H           -0.473180190144    -2.159752546139     0.819580000000     1.007825032230
         H           -0.473180190144    -2.159752546139    -0.819580000000     1.007825032230
         H            0.946369809856    -2.159752546139     0.000000000000     1.007825032230

  Running in c1 symmetry.

  Rotational constants: A =      6.22544  B =      0.18597  C =      0.18597 [cm^-1]
  Rotational constants: A = 186633.95025  B =   5575.33063  C =   5575.33014 [MHz]
  Nuclear repulsion =   11.947581311396526

  Charge       = 0
  Multiplicity = 1
  Electrons    = 10
  Nalpha       = 5
  Nbeta        = 5

  ==> Algorithm <==

  SCF Algorithm Type is DF.
  DIIS enabled.
  MOM disabled.
  Fractional occupation disabled.
  Guess Type is SAD.
  Energy threshold   = 1.00e-08
  Density threshold  = 1.00e-08
  Integral threshold = 1.00e-12

  ==> Primary Basis <==

  Basis Set: THIS_BASIS
    Blend: DEF2-QZVP
    Number of shells: 79
    Number of basis functions: 247
    Number of Cartesian functions: 298
    Spherical Harmonics?: true
    Max angular momentum: 4

  ==> DFT Potential <==

   => LibXC <=

    Version 6.2.2
    S. Lehtola, C. Steigemann, M. J.T. Oliveira, and M. A.L. Marques.,  SoftwareX 7, 15 (2018) (10.1016/j.softx.2017.11.002)

   => Composite Functional: PBE0 <= 

    PBE0 Hyb-GGA Exchange-Correlation Functional

    C. Adamo and V. Barone.,  J. Chem. Phys. 110, 6158 (1999) (10.1063/1.478522)
    M. Ernzerhof and G. E. Scuseria.,  J. Chem. Phys. 110, 5029 (1999) (10.1063/1.478401)

    Deriv               =              1
    GGA                 =           TRUE
    Meta                =          FALSE

    Exchange Hybrid     =           TRUE
    MP2 Hybrid          =          FALSE

   => Exchange Functionals <=

    0.7500   Perdew, Burke & Ernzerhof

   => Exact (HF) Exchange <=

    0.2500               HF 

   => Correlation Functionals <=

    1.0000   Perdew, Burke & Ernzerhof

   => LibXC Density Thresholds  <==

    XC_HYB_GGA_XC_PBEH:  1.00E-15 

   => Asymptotic Correction <=

    X Functional        =    XC_GGA_X_LB
    C Functional        =   XC_LDA_C_VWN
    Bulk Shift          =       0.113162
    GRAC Alpha          =       0.500000
    GRAC Beta           =      40.000000

   => Molecular Quadrature <=

    Radial Scheme          =       TREUTLER
    Pruning Scheme         =           NONE
    Nuclear Scheme         =       TREUTLER

    Blocking Scheme        =         OCTREE
    BS radius alpha        =              1
    Pruning alpha          =              1
    Radial Points          =             75
    Spherical Points       =            302
    Total Points           =         130131
    Total Blocks           =           1049
    Max Points             =            256
    Max Functions          =            238
    Weights Tolerance      =       1.00E-15

   => Loading Basis Set <=

    Name: (THIS_BASIS AUX)
    Role: JKFIT
    Keyword: DF_BASIS_SCF
    atoms 1, 4-6 entry H          line    18 file /home/vance/anaconda3/envs/p4env/share/psi4/basis/def2-universal-jkfit.gbs 
    atoms 2      entry CL         line   986 file /home/vance/anaconda3/envs/p4env/share/psi4/basis/def2-universal-jkfit.gbs 
    atoms 3      entry N          line   258 file /home/vance/anaconda3/envs/p4env/share/psi4/basis/def2-universal-jkfit.gbs 

  ==> Integral Setup <==

  ==> DiskDFJK: Density-Fitted J/K Matrices <==

    J tasked:                  Yes
    K tasked:                  Yes
    wK tasked:                  No
    OpenMP threads:              4
    Integrals threads:           4
    Memory [MiB]:             4947
    Algorithm:                Core
    Integral Cache:           SAVE
    Schwarz Cutoff:          1E-12
    Fitting Condition:       1E-10

   => Auxiliary Basis Set <=

  Basis Set: (THIS_BASIS AUX)
    Blend: DEF2-UNIVERSAL-JKFIT
    Number of shells: 87
    Number of basis functions: 277
    Number of Cartesian functions: 328
    Spherical Harmonics?: true
    Max angular momentum: 4

  Cached 100.0% of DFT collocation blocks in 0.756 [GiB].

  Minimum eigenvalue in the overlap matrix is 1.0292610383E-04.
  Reciprocal condition number of the overlap matrix is 1.1596202189E-05.
    Using symmetric orthogonalization.

  ==> Pre-Iterations <==

  SCF Guess: Superposition of Atomic Densities via on-the-fly atomic UHF (no occupation information).

   -------------------------
    Irrep   Nso     Nmo    
   -------------------------
     A        247     247 
   -------------------------
    Total     247     247
   -------------------------

  ==> Iterations <==

                           Total Energy        Delta E     RMS |[F,P]|

   @DF-RKS iter SAD:   -56.06961370784393   -5.60696e+01   0.00000e+00 
   @DF-RKS iter   1:   -56.28032781326266   -2.10714e-01   3.14605e-03 DIIS/ADIIS
   @DF-RKS iter   2:   -56.01419050058808    2.66137e-01   4.14370e-03 DIIS/ADIIS
   @DF-RKS iter   3:   -56.51876928616386   -5.04579e-01   2.24903e-04 DIIS/ADIIS
   @DF-RKS iter   4:   -56.52031464280817   -1.54536e-03   2.02400e-05 DIIS
   @DF-RKS iter   5:   -56.52032257020826   -7.92740e-06   5.26666e-06 DIIS
   @DF-RKS iter   6:   -56.52032257981176   -9.60350e-09   2.00568e-07 DIIS
   @DF-RKS iter   7:   -56.52032253590343    4.39083e-08   2.62614e-08 DIIS
   @DF-RKS iter   8:   -56.52032252567710    1.02264e-08   3.16673e-09 DIIS
   @DF-RKS iter   9:   -56.52032252557130    1.05956e-10   3.53983e-10 DIIS
  Energy and wave function converged.


  ==> Post-Iterations <==

   Electrons on quadrature grid:
      Ntotal   =    9.9999977286 ; deviation = -2.271e-06 

    Orbital Energies [Eh]
    ---------------------

    Doubly Occupied:                                                      

       1A    -14.471973     2A     -0.987926     3A     -0.590475  
       4A     -0.590473     5A     -0.392768  

    Virtual:                                                              

       6A     -0.084579     7A     -0.015346     8A     -0.015344  
       9A      0.006177    10A      0.076920    11A      0.076924  
      12A      0.112471    13A      0.143728    14A      0.143731  
      15A      0.160856    16A      0.253137    17A      0.265695  
      18A      0.269716    19A      0.269718    20A      0.315404  
      21A      0.315407    22A      0.436167    23A      0.526660  
      24A      0.590644    25A      0.590646    26A      0.602067  
      27A      0.602076    28A      0.615272    29A      0.658295  
      30A      0.658301    31A      0.673307    32A      0.706657  
      33A      0.706659    34A      0.767714    35A      0.790684  
      36A      0.811655    37A      0.811666    38A      0.839388  
      39A      0.839402    40A      0.900858    41A      0.964853  
      42A      0.964857    43A      1.054178    44A      1.062418  
      45A      1.062419    46A      1.070893    47A      1.126759  
      48A      1.270683    49A      1.270683    50A      1.305955  
      51A      1.556942    52A      1.616246    53A      1.616248  
      54A      1.667894    55A      1.667898    56A      1.685278  
      57A      1.687115    58A      1.726841    59A      1.919524  
      60A      1.919528    61A      1.952566    62A      1.952568  
      63A      2.014166    64A      2.041911    65A      2.093716  
      66A      2.093719    67A      2.096465    68A      2.123861  
      69A      2.123866    70A      2.209627    71A      2.209632  
      72A      2.217721    73A      2.261975    74A      2.261975  
      75A      2.314550    76A      2.314557    77A      2.347493  
      78A      2.347498    79A      2.359265    80A      2.402886  
      81A      2.402886    82A      2.461414    83A      2.495477  
      84A      2.599838    85A      2.599840    86A      2.622040  
      87A      2.622044    88A      2.625273    89A      2.745628  
      90A      2.821250    91A      2.821265    92A      2.889177  
      93A      2.901318    94A      2.958510    95A      2.958514  
      96A      3.053912    97A      3.055540    98A      3.055561  
      99A      3.158898   100A      3.243683   101A      3.243684  
     102A      3.409298   103A      3.546099   104A      3.573961  
     105A      3.573970   106A      3.766204   107A      3.858712  
     108A      3.957042   109A      3.957058   110A      3.990203  
     111A      3.990205   112A      4.212331   113A      4.212335  
     114A      4.217687   115A      4.376549   116A      4.409173  
     117A      4.412424   118A      4.436777   119A      4.436786  
     120A      4.656122   121A      4.656127   122A      4.981667  
     123A      5.027661   124A      5.027673   125A      5.246680  
     126A      5.246680   127A      5.474720   128A      5.474721  
     129A      5.565338   130A      5.699703   131A      5.700748  
     132A      5.710556   133A      5.710562   134A      5.732106  
     135A      5.776785   136A      5.776791   137A      5.869989  
     138A      5.869997   139A      5.894569   140A      5.894579  
     141A      5.898503   142A      6.044084   143A      6.045671  
     144A      6.045677   145A      6.145503   146A      6.155402  
     147A      6.203894   148A      6.287017   149A      6.287018  
     150A      6.304602   151A      6.392299   152A      6.392305  
     153A      6.459228   154A      6.582473   155A      6.582473  
     156A      6.707507   157A      6.814305   158A      6.814316  
     159A      6.867297   160A      6.871892   161A      7.107758  
     162A      7.107777   163A      7.144197   164A      7.144200  
     165A      7.215957   166A      7.215965   167A      7.259791  
     168A      7.289957   169A      7.289957   170A      7.414213  
     171A      7.585351   172A      7.595893   173A      7.595894  
     174A      7.720490   175A      7.720502   176A      7.809156  
     177A      7.820433   178A      7.960747   179A      7.960755  
     180A      8.052708   181A      8.052709   182A      8.073341  
     183A      8.100038   184A      8.154728   185A      8.189142  
     186A      8.203196   187A      8.203198   188A      8.385306  
     189A      8.465481   190A      8.465482   191A      8.523171  
     192A      8.523176   193A      8.593204   194A      8.593205  
     195A      8.641792   196A      8.844187   197A      8.875382  
     198A      8.875427   199A      8.971470   200A      8.971496  
     201A      9.321805   202A      9.374925   203A      9.374926  
     204A      9.464783   205A      9.464787   206A      9.694988  
     207A      9.724691   208A      9.724694   209A      9.774090  
     210A      9.993786   211A      9.999238   212A      9.999243  
     213A     10.177248   214A     10.229991   215A     10.229994  
     216A     11.046527   217A     11.162063   218A     11.162065  
     219A     11.527751   220A     11.587737   221A     11.587742  
     222A     11.793881   223A     11.793898   224A     11.841453  
     225A     11.905581   226A     12.767719   227A     14.317838  
     228A     14.317842   229A     15.217559   230A     15.487969  
     231A     21.598467   232A     21.598467   233A     21.606780  
     234A     21.606780   235A     21.753970   236A     21.753971  
     237A     21.907686   238A     22.563286   239A     35.757732  
     240A     38.430744   241A     85.602762   242A    118.061324  
     243A    118.061324   244A    118.106498   245A    197.953723  
     246A    234.102862   247A   1052.137309  

    Final Occupation by Irrep:
              A 
    DOCC [     5 ]
    NA   [     5 ]
    NB   [     5 ]

  @DF-RKS Final Energy:   -56.52032252557130

   => Energetics <=

    Nuclear Repulsion Energy =             11.9475813113965259
    One-Electron Energy =                 -99.6876795566722080
    Two-Electron Energy =                  37.2628213260676517
    DFT Exchange-Correlation Energy =      -6.0430456063632727
    Empirical Dispersion Energy =           0.0000000000000000
    VV10 Nonlocal Energy =                  0.0000000000000000
    Total Energy =                        -56.5203225255712951

Computation Completed


Properties will be evaluated at   0.000000,   0.000000,   0.000000 [a0]

Properties computed using the SCF density matrix


 Multipole Moments:

 ------------------------------------------------------------------------------------
     Multipole            Electronic (a.u.)      Nuclear  (a.u.)        Total (a.u.)
 ------------------------------------------------------------------------------------

 L = 1.  Multiply by 2.5417464519 to convert [e a0] to [Debye]
 Dipole X            :         -0.0000172            0.0000153           -0.0000019
 Dipole Y            :         35.4806258          -36.0645264           -0.5839006
 Dipole Z            :          0.0000000            0.0000000            0.0000000
 Magnitude           :                                                    0.5839006

 ------------------------------------------------------------------------------------

*** tstop() called on cmpsrv002 at Thu Sep 19 14:25:03 2024
Module time:
	user time   =      26.90 seconds =       0.45 minutes
	system time =       0.83 seconds =       0.01 minutes
	total time  =         97 seconds =       1.62 minutes
Total time:
	user time   =      85.55 seconds =       1.43 minutes
	system time =       5.45 seconds =       0.09 minutes
	total time  =        535 seconds =       8.92 minutes

         ---------------------------------------------------------
               SAPT(DFT): Intermolecular Interaction Segment       

                   by Daniel G. A. Smith and Rob Parrish           
         ---------------------------------------------------------

  ==> Algorithm <==

   SAPT DFT Functional             PBE0
   Monomer A GRAC Shift        0.116251
   Monomer B GRAC Shift        0.113162
   Delta HF                        True
   JK Algorithm                      DF

  ==> Preparing SAPT Data Cache <== 

  ==> DiskDFJK: Density-Fitted J/K Matrices <==

    J tasked:                  Yes
    K tasked:                  Yes
    wK tasked:                  No
    OpenMP threads:              4
    Integrals threads:           4
    Memory [MiB]:             4947
    Algorithm:                Core
    Integral Cache:           SAVE
    Schwarz Cutoff:          1E-12
    Fitting Condition:       1E-10

   => Auxiliary Basis Set <=

  Basis Set: (THIS_BASIS AUX)
    Blend: DEF2-UNIVERSAL-JKFIT
    Number of shells: 87
    Number of basis functions: 277
    Number of Cartesian functions: 328
    Spherical Harmonics?: true
    Max angular momentum: 4


  ==> E10 Electostatics <== 

    Elst10,r                        -66.78999394 [mEh]

  ==> E10 Exchange <== 

    Exch10(S^2)                     118.47631554 [mEh]
    Exch10                          128.62921893 [mEh]

  ==> E20 Induction <== 

   => Uncoupled Induction <= 

    Ind20,u (A<-B)                  -28.26496064 [mEh]
    Ind20,u (A->B)                  -49.26804104 [mEh]
    Ind20,u                         -77.53300167 [mEh]
    Exch-Ind20,u (A<-B)              21.74461113 [mEh]
    Exch-Ind20,u (A->B)              23.48114285 [mEh]
    Exch-Ind20,u                     45.22575397 [mEh]
    Exch-Ind20,u (A<-B) (S^inf)      26.14114539 [mEh]
    Exch-Ind20,u (A->B) (S^inf)      28.96668363 [mEh]
    Exch-Ind20,u (S^inf)             55.10782902 [mEh]

   => Coupled Induction <= 

   ---------------------------------------------------
              SAPT Coupled Induction Solver           
   ---------------------------------------------------
    Maxiter             =          20
    Convergence         =   1.000E-06
   ---------------------------------------------------
     Iter       (A<-B)           (B->A)      Time [s]
   ---------------------------------------------------
    Guess    1.198886e-01     1.551112e-01          1
        1    3.019139e-02     5.594863e-02          2
        2    6.831096e-03     1.716544e-02          4
        3    1.925556e-03     1.505218e-03          5
        4    1.898085e-04     1.153831e-04          6
        5    1.439969e-05     8.937357e-06          7
        6    2.063518e-06     8.416272e-07*         8
        7    2.987184e-07*    8.416272e-07*         8
   ---------------------------------------------------

    Ind20,r (A<-B)                  -29.57045722 [mEh]
    Ind20,r (A->B)                  -51.53172641 [mEh]
    Ind20,r                         -81.10218363 [mEh]
    Exch-Ind20,r (A<-B)              23.03805468 [mEh]
    Exch-Ind20,r (A->B)              26.42758768 [mEh]
    Exch-Ind20,r                     49.46564236 [mEh]
    Exch-Ind20,r (A<-B) (S^inf)      27.71782960 [mEh]
    Exch-Ind20,r (A->B) (S^inf)      32.62937417 [mEh]
    Exch-Ind20,r (S^inf)             60.34720377 [mEh]
   => Loading Basis Set <=

    Name: (THIS_BASIS AUX)
    Role: RIFIT
    Keyword: DF_BASIS_MP2
    atoms 1, 4-6 entry H          line    23 file /home/vance/anaconda3/envs/p4env/share/psi4/basis/def2-qzvp-ri.gbs 
    atoms 2      entry CL         line  1113 file /home/vance/anaconda3/envs/p4env/share/psi4/basis/def2-qzvp-ri.gbs 
    atoms 3      entry N          line   337 file /home/vance/anaconda3/envs/p4env/share/psi4/basis/def2-qzvp-ri.gbs 



  ==> E20 Dispersion (CHF FDDS) <== 

   Legendre Points:          10
   Lambda Shift:          0.300
   Fxc Kernal:             ALDA
   (P|Fxc|Q) Thresh:  1.000e-06
  DFHelper Memory: AOs need 0.251 GiB; user supplied 5.960 GiB. 
  Using in-core AOs.

  ==> DFHelper <==
    NBF:                             247
    NAux:                            532
    Schwarz Cutoff:                1E-12
    Mask sparsity (%):                 4
    DFH Avail. Memory [GiB]:       5.960
    OpenMP threads:                    4
    Algorithm:                    DIRECT
    AO Core:                        True
    MO Core:                       False
    Hold Metric:                   False
    Metric Power:                  0.000
    Fitting Condition:             1E-12
    Q Shell Max:                      11


  DFHelper Memory: AOs need 0.261 GiB; user supplied 5.960 GiB. 
  Using in-core AOs.


   => Time Integration <= 

       Omega       Weight       Disp20,u         Disp20   time [s]
   2.269e+01    6.667e-02      8.291e-04      7.821e-04          0
   4.147e+00    1.495e-01      1.179e-02      1.073e-02          0
   1.572e+00    2.191e-01      3.030e-02      2.540e-02          0
   7.589e-01    2.693e-01      4.470e-02      3.335e-02          0
   4.049e-01    2.955e-01      4.559e-02      3.070e-02          1
   2.223e-01    2.955e-01      3.575e-02      2.278e-02          1
   1.186e-01    2.693e-01      2.416e-02      1.508e-02          1
   5.727e-02    2.191e-01      1.504e-02      9.324e-03          1
   2.170e-02    1.495e-01      8.429e-03      5.217e-03          1
   3.966e-03    6.667e-02      3.364e-03      2.082e-03          2

    Disp20,u                        -35.00637116 [mEh]
    Disp20                          -24.74128511 [mEh]

  ==> E20 Dispersion (MP2) <== 


    Disp20 (MP2)                    -34.85387629 [mEh]
    Exch-Disp20,u                     7.48914098 [mEh]
    Scaling Scheme                    FIXED
    Scaling Factor                    0.770
    Est. Exch-Disp20,r                5.76663855 [mEh]

   SAPT(DFT) Results
  ---------------------------------------------------------------------------------------------------------
    Electrostatics                  -66.78999394 [mEh]    -41.91135395 [kcal/mol]   -175.35710492 [kJ/mol]
      Elst1,r                       -66.78999394 [mEh]    -41.91135395 [kcal/mol]   -175.35710492 [kJ/mol]

    Exchange                        128.62921893 [mEh]     80.71605348 [kcal/mol]    337.71596776 [kJ/mol]
      Exch1                         128.62921893 [mEh]     80.71605348 [kcal/mol]    337.71596776 [kJ/mol]
      Exch1(S^2)                    118.47631554 [mEh]     74.34501042 [kcal/mol]    311.05952360 [kJ/mol]

    Induction                       -58.14679361 [mEh]    -36.48766386 [kcal/mol]   -152.66438560 [kJ/mol]
      Ind2,r                        -81.10218363 [mEh]    -50.89238857 [kcal/mol]   -212.93375377 [kJ/mol]
      Exch-Ind2,r                    49.46564236 [mEh]     31.04015921 [kcal/mol]    129.87202612 [kJ/mol]
      Induction (A<-B)               -6.53240253 [mEh]     -4.09914447 [kcal/mol]    -17.15082048 [kJ/mol]
      Induction (A->B)              -25.10413874 [mEh]    -15.75308489 [kcal/mol]    -65.91090717 [kJ/mol]
      delta HF,r (2)                -26.51025235 [mEh]    -16.63543450 [kcal/mol]    -69.60265795 [kJ/mol]

    Dispersion                      -18.97464594 [mEh]    -11.90677009 [kcal/mol]    -49.81792604 [kJ/mol]
      Disp2,r                       -24.74128449 [mEh]    -15.52539041 [kcal/mol]    -64.95823348 [kJ/mol]
      Disp2,u                       -34.85387629 [mEh]    -21.87113757 [kcal/mol]    -91.50883960 [kJ/mol]
      Est. Exch-Disp2,r               5.76663855 [mEh]      3.61862033 [kcal/mol]     15.14030744 [kJ/mol]
      Exch-Disp2,u                    7.48914098 [mEh]      4.69950692 [kcal/mol]     19.66273694 [kJ/mol]

    Total SAPT(DFT)                 -15.28221456 [mEh]     -9.58973442 [kcal/mol]    -40.12344880 [kJ/mol]
  ---------------------------------------------------------------------------------------------------------

*** tstop() called on cmpsrv002 at Thu Sep 19 15:05:01 2024
Module time:
	user time   =     137.24 seconds =       2.29 minutes
	system time =      16.75 seconds =       0.28 minutes
	total time  =       2495 seconds =      41.58 minutes
Total time:
	user time   =     200.03 seconds =       3.33 minutes
	system time =      21.49 seconds =       0.36 minutes
	total time  =       2938 seconds =      48.97 minutes

    Psi4 stopped on: Thursday, 19 September 2024 03:05PM
    Psi4 wall time for execution: 0:48:58.59

*** Psi4 exiting successfully. Buy a developer a beer!
