
    -----------------------------------------------------------------------
          Psi4: An Open-Source Ab Initio Electronic Structure Package
                               Psi4 1.9.1 release

                         Git: Rev {} zzzzzzz 


    D. G. A. Smith, L. A. Burns, A. C. Simmonett, R. M. Parrish,
    M. C. Schieber, R. Galvelis, P. Kraus, H. Kruse, R. Di Remigio,
    A. Alenaizan, A. M. James, S. Lehtola, J. P. Misiewicz, M. Scheurer,
    R. A. Shaw, J. B. Schriber, Y. Xie, Z. L. Glick, D. A. Sirianni,
    J. S. O'Brien, J. M. Waldrop, A. Kumar, E. G. Hohenstein,
    B. P. Pritchard, B. R. Brooks, H. F. Schaefer III, A. Yu. Sokolov,
    K. Patkowski, A. E. DePrince III, U. Bozkaya, R. A. King,
    F. A. Evangelista, J. M. Turney, T. D. Crawford, C. D. Sherrill,
    J. Chem. Phys. 152(18) 184108 (2020). https://doi.org/10.1063/5.0006002

                            Additional Code Authors
    E. T. Seidl, C. L. Janssen, E. F. Valeev, M. L. Leininger,
    J. F. Gonthier, R. M. Richard, H. R. McAlexander, M. Saitow, X. Wang,
    P. Verma, M. H. Lechner, A. Jiang, S. Behnle, A. G. Heide,
    M. F. Herbst, and D. L. Poole

             Previous Authors, Complete List of Code Contributors,
                       and Citations for Specific Modules
    https://github.com/psi4/psi4/blob/master/codemeta.json
    https://github.com/psi4/psi4/graphs/contributors
    http://psicode.org/psi4manual/master/introduction.html#citing-psifour

    -----------------------------------------------------------------------


    Psi4 started on: Thursday, 19 September 2024 02:16PM

    Process ID: 605863
    Host:       cmpsrv002
    PSIDATADIR: /home/vance/anaconda3/envs/p4env/share/psi4
    Memory:     500.0 MiB
    Threads:    8
    
  ==> Input File <==

--------------------------------------------------------------------------
#charge=0 charge_a=0 charge_b=0 selection_a=1-2 selection_b=3-13 scaling=0.95 benchmark_Eint=-11.705 benchmark_unit=kcal/mol group=XH-N
set_num_threads(4)
memory 8 GB
basis this_basis {
    assign    def2-qzvp
}

molecule {
     0 1
    --
     0 1
     H        0.00000        0.00000        1.62588
    Cl        0.00000        0.00000        2.99334
    --
     0 1
     H        0.00000       -2.14771       -2.46854
     H        0.00000       -2.05142        0.02499
     C        0.00000        0.00000       -2.66234
     C        0.00000       -1.19640       -1.95822
     C        0.00000       -1.14931       -0.57229
     N        0.00000        0.00000        0.10071
     C       -0.00000        1.14931       -0.57229
     C       -0.00000        1.19640       -1.95822
     H       -0.00000        2.05142        0.02499
     H       -0.00000        2.14771       -2.46854
     H        0.00000        0.00000       -3.74291
}

set {
    sapt_dft_functional     PBE0
    scf_type                DF
    freeze_core             true
    sapt_dft_grac_shift_a    0.116251
    sapt_dft_grac_shift_b    0.074627
    sapt_dft_do_hybrid      true
    do_ind_exch_sinf        true
    do_disp_exch_sinf       true
}

nrg = energy('sapt(DFT)')
--------------------------------------------------------------------------
  Threads set to 4 by Python driver.

  Memory set to   7.451 GiB by Python driver.

Scratch directory: /scratch2/vance/psi4/

*** tstart() called on cmpsrv002
*** at Thu Sep 19 14:16:08 2024

  SAPT does not make use of molecular symmetry, further calculations in C1 point group.

         ---------------------------------------------------------
                            SAPT(DFT) Procedure                    

                           by Daniel G. A. Smith                   
         ---------------------------------------------------------

Warning! The default value of SAPT_DFT_EXCH_DISP_SCALE_SCHEME has changed from DISP to FIXED. Please be careful comparing results with earlier versions. 

  ==> Algorithm <==

   SAPT DFT Functional             PBE0
   Monomer A GRAC Shift        0.116251
   Monomer B GRAC Shift        0.074627
   Delta HF                        True
   JK Algorithm                      DF

   Required computations:
     HF  (Dimer)
     HF  (Monomer A)
     HF  (Monomer B)
     DFT (Monomer A)
     DFT (Monomer B)

   => Libint2 <=

    Primary   basis highest AM E, G, H:  6, 6, 3
    Auxiliary basis highest AM E, G, H:  7, 7, 4
    Onebody   basis highest AM E, G, H:  -, -, -
    Solid Harmonics ordering:            Gaussian

*** tstart() called on cmpsrv002
*** at Thu Sep 19 14:16:08 2024

   => Loading Basis Set <=

    Name: THIS_BASIS
    Role: ORBITAL
    Keyword: BASIS
    atoms 1, 3-4, 11-13 entry H          line    15 file /home/vance/anaconda3/envs/p4env/share/psi4/basis/def2-qzvp.gbs 
    atoms 2             entry CL         line   809 file /home/vance/anaconda3/envs/p4env/share/psi4/basis/def2-qzvp.gbs 
    atoms 5-7, 9-10     entry C          line   194 file /home/vance/anaconda3/envs/p4env/share/psi4/basis/def2-qzvp.gbs 
    atoms 8             entry N          line   242 file /home/vance/anaconda3/envs/p4env/share/psi4/basis/def2-qzvp.gbs 


         ---------------------------------------------------------
                         SAPT(DFT): delta HF Dimer                 
         ---------------------------------------------------------
                                   SCF
               by Justin Turney, Rob Parrish, Andy Simmonett
                          and Daniel G. A. Smith
                              RHF Reference
                        4 Threads,   7629 MiB Core
         ---------------------------------------------------------

  ==> Geometry <==

    Molecular point group: c1
    Full point group: C2v

    Geometry (in Angstrom), charge = 0, multiplicity = 1:

       Center              X                  Y                   Z               Mass       
    ------------   -----------------  -----------------  -----------------  -----------------
         H            0.000000000000     0.000000000000     1.570718119627     1.007825032230
         CL           0.000000000000     0.000000000000     2.938178119627    34.968852682000
         H            0.000000000000    -2.147710000000    -2.523701880373     1.007825032230
         H            0.000000000000    -2.051420000000    -0.030171880373     1.007825032230
         C            0.000000000000     0.000000000000    -2.717501880373    12.000000000000
         C            0.000000000000    -1.196400000000    -2.013381880373    12.000000000000
         C            0.000000000000    -1.149310000000    -0.627451880373    12.000000000000
         N            0.000000000000     0.000000000000     0.045548119627    14.003074004430
         C           -0.000000000000     1.149310000000    -0.627451880373    12.000000000000
         C           -0.000000000000     1.196400000000    -2.013381880373    12.000000000000
         H           -0.000000000000     2.051420000000    -0.030171880373     1.007825032230
         H           -0.000000000000     2.147710000000    -2.523701880373     1.007825032230
         H            0.000000000000     0.000000000000    -3.798071880373     1.007825032230

  Running in c1 symmetry.

  Rotational constants: A =      0.20108  B =      0.03198  C =      0.02759 [cm^-1]
  Rotational constants: A =   6028.26605  B =    958.73489  C =    827.18022 [MHz]
  Nuclear repulsion =  312.414116958048623

  Charge       = 0
  Multiplicity = 1
  Electrons    = 60
  Nalpha       = 30
  Nbeta        = 30

  ==> Algorithm <==

  SCF Algorithm Type is DF.
  DIIS enabled.
  MOM disabled.
  Fractional occupation disabled.
  Guess Type is SAD.
  Energy threshold   = 1.00e-08
  Density threshold  = 1.00e-08
  Integral threshold = 1.00e-12

  ==> Primary Basis <==

  Basis Set: THIS_BASIS
    Blend: DEF2-QZVP
    Number of shells: 184
    Number of basis functions: 592
    Number of Cartesian functions: 728
    Spherical Harmonics?: true
    Max angular momentum: 4

   => Loading Basis Set <=

    Name: (THIS_BASIS AUX)
    Role: JKFIT
    Keyword: DF_BASIS_SCF
    atoms 1, 3-4, 11-13 entry H          line    18 file /home/vance/anaconda3/envs/p4env/share/psi4/basis/def2-universal-jkfit.gbs 
    atoms 2             entry CL         line   986 file /home/vance/anaconda3/envs/p4env/share/psi4/basis/def2-universal-jkfit.gbs 
    atoms 5-7, 9-10     entry C          line   198 file /home/vance/anaconda3/envs/p4env/share/psi4/basis/def2-universal-jkfit.gbs 
    atoms 8             entry N          line   258 file /home/vance/anaconda3/envs/p4env/share/psi4/basis/def2-universal-jkfit.gbs 

  ==> Integral Setup <==

  ==> DiskDFJK: Density-Fitted J/K Matrices <==

    J tasked:                  Yes
    K tasked:                  Yes
    wK tasked:                  No
    OpenMP threads:              4
    Integrals threads:           4
    Memory [MiB]:             5722
    Algorithm:                Core
    Integral Cache:           SAVE
    Schwarz Cutoff:          1E-12
    Fitting Condition:       1E-10

   => Auxiliary Basis Set <=

  Basis Set: (THIS_BASIS AUX)
    Blend: DEF2-UNIVERSAL-JKFIT
    Number of shells: 224
    Number of basis functions: 688
    Number of Cartesian functions: 813
    Spherical Harmonics?: true
    Max angular momentum: 4

  Minimum eigenvalue in the overlap matrix is 1.9489291044E-05.
  Reciprocal condition number of the overlap matrix is 1.7596768741E-06.
    Using symmetric orthogonalization.

  ==> Pre-Iterations <==

  SCF Guess: Superposition of Atomic Densities via on-the-fly atomic UHF (no occupation information).

   -------------------------
    Irrep   Nso     Nmo    
   -------------------------
     A        592     592 
   -------------------------
    Total     592     592
   -------------------------

  ==> Iterations <==

                           Total Energy        Delta E     RMS |[F,P]|

   @DF-RHF iter SAD:  -706.37480768887065   -7.06375e+02   0.00000e+00 
   @DF-RHF iter   1:  -706.76861444684005   -3.93807e-01   8.55995e-04 ADIIS/DIIS
   @DF-RHF iter   2:  -706.88990503821367   -1.21291e-01   3.53403e-04 ADIIS/DIIS
   @DF-RHF iter   3:  -706.90944094281645   -1.95359e-02   7.57612e-05 DIIS
   @DF-RHF iter   4:  -706.91094556882422   -1.50463e-03   2.03208e-05 DIIS
   @DF-RHF iter   5:  -706.91103479917456   -8.92304e-05   6.67463e-06 DIIS
   @DF-RHF iter   6:  -706.91104697476919   -1.21756e-05   2.70585e-06 DIIS
   @DF-RHF iter   7:  -706.91104935181988   -2.37705e-06   9.61859e-07 DIIS
   @DF-RHF iter   8:  -706.91104973041456   -3.78595e-07   2.87146e-07 DIIS
   @DF-RHF iter   9:  -706.91104976650388   -3.60893e-08   9.69828e-08 DIIS
   @DF-RHF iter  10:  -706.91104976974816   -3.24428e-09   2.19397e-08 DIIS
   @DF-RHF iter  11:  -706.91104977005193   -3.03771e-10   8.82342e-09 DIIS
  Energy and wave function converged.


  ==> Post-Iterations <==

    Orbital Energies [Eh]
    ---------------------

    Doubly Occupied:                                                      

       1A   -104.768657     2A    -15.604418     3A    -11.305753  
       4A    -11.305733     5A    -11.286016     6A    -11.266210  
       7A    -11.266160     8A    -10.495233     9A     -7.962209  
      10A     -7.961144    11A     -7.961126    12A     -1.301445  
      13A     -1.121271    14A     -1.067349    15A     -1.038470  
      16A     -0.891294    17A     -0.889406    18A     -0.759084  
      19A     -0.695488    20A     -0.682194    21A     -0.638531  
      22A     -0.630455    23A     -0.580172    24A     -0.556228  
      25A     -0.551409    26A     -0.424098    27A     -0.421995  
      28A     -0.411533    29A     -0.407321    30A     -0.376871  

    Virtual:                                                              

      31A      0.067959    32A      0.089481    33A      0.091584  
      34A      0.109187    35A      0.119483    36A      0.148552  
      37A      0.151701    38A      0.184080    39A      0.187278  
      40A      0.194301    41A      0.212741    42A      0.220887  
      43A      0.225619    44A      0.241752    45A      0.242560  
      46A      0.247200    47A      0.265263    48A      0.271889  
      49A      0.299785    50A      0.313241    51A      0.332616  
      52A      0.345247    53A      0.350310    54A      0.365144  
      55A      0.374150    56A      0.377241    57A      0.391492  
      58A      0.394173    59A      0.405911    60A      0.417917  
      61A      0.443979    62A      0.447571    63A      0.460923  
      64A      0.464027    65A      0.470287    66A      0.479147  
      67A      0.513109    68A      0.514082    69A      0.525262  
      70A      0.532962    71A      0.542851    72A      0.544850  
      73A      0.548995    74A      0.559762    75A      0.587275  
      76A      0.591313    77A      0.613152    78A      0.627003  
      79A      0.642676    80A      0.653241    81A      0.665256  
      82A      0.669332    83A      0.688637    84A      0.700763  
      85A      0.747627    86A      0.754630    87A      0.776614  
      88A      0.793306    89A      0.804029    90A      0.818140  
      91A      0.827977    92A      0.856153    93A      0.856369  
      94A      0.860918    95A      0.876042    96A      0.895216  
      97A      0.899081    98A      0.902543    99A      0.906019  
     100A      0.921449   101A      0.927968   102A      0.932495  
     103A      0.936803   104A      0.960057   105A      0.967925  
     106A      0.997152   107A      1.014453   108A      1.020521  
     109A      1.040909   110A      1.046325   111A      1.069483  
     112A      1.076632   113A      1.088132   114A      1.088800  
     115A      1.101388   116A      1.112824   117A      1.127293  
     118A      1.153011   119A      1.164356   120A      1.180681  
     121A      1.183854   122A      1.197854   123A      1.214772  
     124A      1.233495   125A      1.239454   126A      1.239588  
     127A      1.271141   128A      1.295588   129A      1.308661  
     130A      1.332890   131A      1.339502   132A      1.343402  
     133A      1.360085   134A      1.372403   135A      1.373387  
     136A      1.395824   137A      1.412201   138A      1.449722  
     139A      1.453164   140A      1.462620   141A      1.478091  
     142A      1.481824   143A      1.485166   144A      1.494245  
     145A      1.494718   146A      1.514283   147A      1.573896  
     148A      1.575079   149A      1.577155   150A      1.593593  
     151A      1.615795   152A      1.621938   153A      1.629321  
     154A      1.648463   155A      1.665338   156A      1.707823  
     157A      1.734163   158A      1.766941   159A      1.781066  
     160A      1.788915   161A      1.815674   162A      1.825852  
     163A      1.841616   164A      1.871941   165A      1.906140  
     166A      1.910295   167A      1.913332   168A      1.957522  
     169A      1.973820   170A      1.975052   171A      1.987328  
     172A      1.992751   173A      2.020555   174A      2.021536  
     175A      2.036163   176A      2.046126   177A      2.062705  
     178A      2.088101   179A      2.127611   180A      2.127983  
     181A      2.140685   182A      2.174739   183A      2.177324  
     184A      2.186101   185A      2.196488   186A      2.196879  
     187A      2.205188   188A      2.213447   189A      2.218235  
     190A      2.258698   191A      2.274790   192A      2.292302  
     193A      2.293316   194A      2.295821   195A      2.318269  
     196A      2.330664   197A      2.335976   198A      2.369349  
     199A      2.401129   200A      2.407660   201A      2.411728  
     202A      2.414869   203A      2.420226   204A      2.469800  
     205A      2.469849   206A      2.474652   207A      2.480325  
     208A      2.496297   209A      2.503640   210A      2.572706  
     211A      2.577056   212A      2.589493   213A      2.610417  
     214A      2.611797   215A      2.623480   216A      2.644596  
     217A      2.668866   218A      2.681891   219A      2.692835  
     220A      2.703047   221A      2.707599   222A      2.726354  
     223A      2.745142   224A      2.754790   225A      2.755374  
     226A      2.777642   227A      2.795066   228A      2.796054  
     229A      2.809326   230A      2.827215   231A      2.836814  
     232A      2.838583   233A      2.855665   234A      2.868512  
     235A      2.886792   236A      2.896203   237A      2.929816  
     238A      2.942295   239A      2.945739   240A      2.991504  
     241A      3.001828   242A      3.005150   243A      3.025126  
     244A      3.044153   245A      3.046423   246A      3.080749  
     247A      3.084651   248A      3.114716   249A      3.164043  
     250A      3.182953   251A      3.203748   252A      3.210167  
     253A      3.250916   254A      3.300318   255A      3.305830  
     256A      3.307457   257A      3.360319   258A      3.361640  
     259A      3.377252   260A      3.377848   261A      3.460178  
     262A      3.463278   263A      3.472160   264A      3.560467  
     265A      3.565103   266A      3.574220   267A      3.608569  
     268A      3.620975   269A      3.636795   270A      3.648584  
     271A      3.657089   272A      3.660881   273A      3.668767  
     274A      3.712655   275A      3.722980   276A      3.751722  
     277A      3.769235   278A      3.792961   279A      3.798048  
     280A      3.806021   281A      3.810582   282A      3.833505  
     283A      3.841600   284A      3.870682   285A      3.870706  
     286A      3.913804   287A      3.957312   288A      3.993752  
     289A      3.994881   290A      3.997561   291A      3.997842  
     292A      4.022150   293A      4.022311   294A      4.051357  
     295A      4.072908   296A      4.130638   297A      4.140642  
     298A      4.148678   299A      4.149198   300A      4.190759  
     301A      4.198966   302A      4.199872   303A      4.242936  
     304A      4.281909   305A      4.285945   306A      4.296090  
     307A      4.339438   308A      4.346484   309A      4.366459  
     310A      4.378547   311A      4.386516   312A      4.424783  
     313A      4.442203   314A      4.462043   315A      4.468988  
     316A      4.489306   317A      4.491699   318A      4.515552  
     319A      4.533003   320A      4.592742   321A      4.674039  
     322A      4.675521   323A      4.704177   324A      4.734527  
     325A      4.804356   326A      4.819633   327A      4.899233  
     328A      4.933593   329A      5.008574   330A      5.058399  
     331A      5.112061   332A      5.148366   333A      5.154386  
     334A      5.159518   335A      5.161220   336A      5.214856  
     337A      5.244667   338A      5.262640   339A      5.331823  
     340A      5.373775   341A      5.397069   342A      5.398033  
     343A      5.400224   344A      5.418464   345A      5.475658  
     346A      5.534954   347A      5.539057   348A      5.563757  
     349A      5.589762   350A      5.625200   351A      5.689904  
     352A      5.691440   353A      5.712763   354A      5.744126  
     355A      5.752942   356A      5.762117   357A      5.824622  
     358A      5.829419   359A      5.835727   360A      5.842341  
     361A      5.873956   362A      5.886280   363A      5.887703  
     364A      5.985825   365A      5.988332   366A      6.002854  
     367A      6.073634   368A      6.079715   369A      6.089063  
     370A      6.115931   371A      6.124167   372A      6.135564  
     373A      6.167621   374A      6.185173   375A      6.188148  
     376A      6.196015   377A      6.247342   378A      6.282272  
     379A      6.293501   380A      6.328556   381A      6.343452  
     382A      6.343923   383A      6.358180   384A      6.410524  
     385A      6.412038   386A      6.419282   387A      6.419438  
     388A      6.442704   389A      6.452389   390A      6.453352  
     391A      6.471384   392A      6.491463   393A      6.493167  
     394A      6.517554   395A      6.536060   396A      6.537834  
     397A      6.540588   398A      6.578968   399A      6.603881  
     400A      6.621212   401A      6.633995   402A      6.643121  
     403A      6.643303   404A      6.650739   405A      6.670199  
     406A      6.679216   407A      6.720714   408A      6.767505  
     409A      6.772162   410A      6.777326   411A      6.781196  
     412A      6.829552   413A      6.870022   414A      6.882372  
     415A      6.891101   416A      6.895787   417A      6.920652  
     418A      6.933523   419A      6.993105   420A      7.008764  
     421A      7.030513   422A      7.049311   423A      7.061141  
     424A      7.077637   425A      7.088471   426A      7.131537  
     427A      7.143831   428A      7.171790   429A      7.173888  
     430A      7.175531   431A      7.183383   432A      7.240010  
     433A      7.296856   434A      7.391013   435A      7.398966  
     436A      7.409278   437A      7.418215   438A      7.451622  
     439A      7.465915   440A      7.496120   441A      7.503705  
     442A      7.528088   443A      7.553352   444A      7.610492  
     445A      7.674352   446A      7.736304   447A      7.743183  
     448A      7.763020   449A      7.767196   450A      7.813651  
     451A      7.828665   452A      7.840076   453A      7.852735  
     454A      7.874272   455A      7.876956   456A      7.914609  
     457A      7.920175   458A      7.934910   459A      7.971673  
     460A      7.994760   461A      8.028707   462A      8.028983  
     463A      8.090847   464A      8.096280   465A      8.103856  
     466A      8.154247   467A      8.196976   468A      8.199866  
     469A      8.208647   470A      8.247117   471A      8.300368  
     472A      8.302675   473A      8.312868   474A      8.314587  
     475A      8.353900   476A      8.374177   477A      8.376778  
     478A      8.385482   479A      8.386876   480A      8.434272  
     481A      8.482837   482A      8.487460   483A      8.488793  
     484A      8.492373   485A      8.514993   486A      8.533242  
     487A      8.595627   488A      8.620120   489A      8.646100  
     490A      8.673503   491A      8.679216   492A      8.721984  
     493A      8.723282   494A      8.724872   495A      8.751169  
     496A      8.756142   497A      8.768390   498A      8.779664  
     499A      8.800822   500A      8.829242   501A      8.857614  
     502A      8.858262   503A      8.866204   504A      8.894885  
     505A      8.897422   506A      8.910713   507A      8.962977  
     508A      8.995116   509A      9.015166   510A      9.066999  
     511A      9.071970   512A      9.102224   513A      9.125364  
     514A      9.142819   515A      9.206862   516A      9.221796  
     517A      9.291673   518A      9.314515   519A      9.340372  
     520A      9.393829   521A      9.462347   522A      9.498273  
     523A      9.525239   524A      9.542451   525A      9.568730  
     526A      9.683212   527A      9.742853   528A      9.814388  
     529A      9.826570   530A      9.934227   531A      9.950160  
     532A      9.993626   533A     10.046710   534A     10.124444  
     535A     10.133557   536A     10.169272   537A     10.176198  
     538A     10.187972   539A     10.246252   540A     10.275163  
     541A     10.313499   542A     10.400936   543A     10.437673  
     544A     10.451787   545A     10.539964   546A     10.574114  
     547A     10.580372   548A     10.591648   549A     10.680685  
     550A     10.737757   551A     10.803910   552A     10.904232  
     553A     11.028689   554A     11.050755   555A     11.162704  
     556A     11.186121   557A     11.280273   558A     11.316171  
     559A     11.350629   560A     11.361075   561A     11.475206  
     562A     11.489979   563A     11.544201   564A     11.717362  
     565A     12.183299   566A     12.236391   567A     12.471960  
     568A     12.561910   569A     12.678345   570A     12.840675  
     571A     13.158229   572A     13.195350   573A     13.408701  
     574A     13.667051   575A     28.971928   576A     29.474075  
     577A     29.644650   578A     29.991773   579A     30.105174  
     580A     30.193964   581A     38.909554   582A     43.355271  
     583A     43.358427   584A     43.527533   585A    100.505532  
     586A    149.544685   587A    150.030440   588A    150.180504  
     589A    150.527850   590A    150.746592   591A    200.053592  
     592A    530.882292  

    Final Occupation by Irrep:
              A 
    DOCC [    30 ]
    NA   [    30 ]
    NB   [    30 ]

  @DF-RHF Final Energy:  -706.91104977005193

   => Energetics <=

    Nuclear Repulsion Energy =            312.4141169580486235
    One-Electron Energy =               -1589.3957902241691045
    Two-Electron Energy =                 570.0706234960684924
    Total Energy =                       -706.9110497700519318

Computation Completed


Properties will be evaluated at   0.000000,   0.000000,   0.000000 [a0]

Properties computed using the SCF density matrix


 Multipole Moments:

 ------------------------------------------------------------------------------------
     Multipole            Electronic (a.u.)      Nuclear  (a.u.)        Total (a.u.)
 ------------------------------------------------------------------------------------

 L = 1.  Multiply by 2.5417464519 to convert [e a0] to [Debye]
 Dipole X            :         -0.0000000           -0.0000000           -0.0000000
 Dipole Y            :          0.0000000           -0.0000000            0.0000000
 Dipole Z            :          6.8799964           -9.5662714           -2.6862750
 Magnitude           :                                                    2.6862750

 ------------------------------------------------------------------------------------

*** tstop() called on cmpsrv002 at Thu Sep 19 14:34:07 2024
Module time:
	user time   =      54.32 seconds =       0.91 minutes
	system time =       6.69 seconds =       0.11 minutes
	total time  =       1084 seconds =      18.07 minutes
Total time:
	user time   =      54.32 seconds =       0.91 minutes
	system time =       6.69 seconds =       0.11 minutes
	total time  =       1084 seconds =      18.07 minutes
   => Libint2 <=

    Primary   basis highest AM E, G, H:  6, 6, 3
    Auxiliary basis highest AM E, G, H:  7, 7, 4
    Onebody   basis highest AM E, G, H:  -, -, -
    Solid Harmonics ordering:            Gaussian

*** tstart() called on cmpsrv002
*** at Thu Sep 19 14:34:07 2024

   => Loading Basis Set <=

    Name: THIS_BASIS
    Role: ORBITAL
    Keyword: BASIS
    atoms 1, 3-4, 11-13 entry H          line    15 file /home/vance/anaconda3/envs/p4env/share/psi4/basis/def2-qzvp.gbs 
    atoms 2             entry CL         line   809 file /home/vance/anaconda3/envs/p4env/share/psi4/basis/def2-qzvp.gbs 
    atoms 5-7, 9-10     entry C          line   194 file /home/vance/anaconda3/envs/p4env/share/psi4/basis/def2-qzvp.gbs 
    atoms 8             entry N          line   242 file /home/vance/anaconda3/envs/p4env/share/psi4/basis/def2-qzvp.gbs 


         ---------------------------------------------------------
                       SAPT(DFT): delta HF Monomer A               
         ---------------------------------------------------------
                                   SCF
               by Justin Turney, Rob Parrish, Andy Simmonett
                          and Daniel G. A. Smith
                              RHF Reference
                        4 Threads,   7629 MiB Core
         ---------------------------------------------------------

  ==> Geometry <==

    Molecular point group: c1
    Full point group: C2v

    Geometry (in Angstrom), charge = 0, multiplicity = 1:

       Center              X                  Y                   Z               Mass       
    ------------   -----------------  -----------------  -----------------  -----------------
         H            0.000000000000     0.000000000000     1.570718119627     1.007825032230
         CL           0.000000000000     0.000000000000     2.938178119627    34.968852682000
      Gh(H)           0.000000000000    -2.147710000000    -2.523701880373     1.007825032230
      Gh(H)           0.000000000000    -2.051420000000    -0.030171880373     1.007825032230
      Gh(C)           0.000000000000     0.000000000000    -2.717501880373    12.000000000000
      Gh(C)           0.000000000000    -1.196400000000    -2.013381880373    12.000000000000
      Gh(C)           0.000000000000    -1.149310000000    -0.627451880373    12.000000000000
      Gh(N)           0.000000000000     0.000000000000     0.045548119627    14.003074004430
      Gh(C)          -0.000000000000     1.149310000000    -0.627451880373    12.000000000000
      Gh(C)          -0.000000000000     1.196400000000    -2.013381880373    12.000000000000
      Gh(H)          -0.000000000000     2.051420000000    -0.030171880373     1.007825032230
      Gh(H)          -0.000000000000     2.147710000000    -2.523701880373     1.007825032230
      Gh(H)           0.000000000000     0.000000000000    -3.798071880373     1.007825032230

  Running in c1 symmetry.

  Rotational constants: A =      0.20108  B =      0.03198  C =      0.02759 [cm^-1]
  Rotational constants: A =   6028.26605  B =    958.73489  C =    827.18022 [MHz]
  Nuclear repulsion =    6.578629416136486

  Charge       = 0
  Multiplicity = 1
  Electrons    = 18
  Nalpha       = 9
  Nbeta        = 9

  ==> Algorithm <==

  SCF Algorithm Type is DF.
  DIIS enabled.
  MOM disabled.
  Fractional occupation disabled.
  Guess Type is SAD.
  Energy threshold   = 1.00e-08
  Density threshold  = 1.00e-08
  Integral threshold = 1.00e-12

  ==> Primary Basis <==

  Basis Set: THIS_BASIS
    Blend: DEF2-QZVP
    Number of shells: 184
    Number of basis functions: 592
    Number of Cartesian functions: 728
    Spherical Harmonics?: true
    Max angular momentum: 4

   => Loading Basis Set <=

    Name: (THIS_BASIS AUX)
    Role: JKFIT
    Keyword: DF_BASIS_SCF
    atoms 1, 3-4, 11-13 entry H          line    18 file /home/vance/anaconda3/envs/p4env/share/psi4/basis/def2-universal-jkfit.gbs 
    atoms 2             entry CL         line   986 file /home/vance/anaconda3/envs/p4env/share/psi4/basis/def2-universal-jkfit.gbs 
    atoms 5-7, 9-10     entry C          line   198 file /home/vance/anaconda3/envs/p4env/share/psi4/basis/def2-universal-jkfit.gbs 
    atoms 8             entry N          line   258 file /home/vance/anaconda3/envs/p4env/share/psi4/basis/def2-universal-jkfit.gbs 

  ==> Integral Setup <==

  ==> DiskDFJK: Density-Fitted J/K Matrices <==

    J tasked:                  Yes
    K tasked:                  Yes
    wK tasked:                  No
    OpenMP threads:              4
    Integrals threads:           4
    Memory [MiB]:             5722
    Algorithm:                Core
    Integral Cache:           SAVE
    Schwarz Cutoff:          1E-12
    Fitting Condition:       1E-10

   => Auxiliary Basis Set <=

  Basis Set: (THIS_BASIS AUX)
    Blend: DEF2-UNIVERSAL-JKFIT
    Number of shells: 224
    Number of basis functions: 688
    Number of Cartesian functions: 813
    Spherical Harmonics?: true
    Max angular momentum: 4

  Minimum eigenvalue in the overlap matrix is 1.9489291044E-05.
  Reciprocal condition number of the overlap matrix is 1.7596768741E-06.
    Using symmetric orthogonalization.

  ==> Pre-Iterations <==

  SCF Guess: Superposition of Atomic Densities via on-the-fly atomic UHF (no occupation information).

   -------------------------
    Irrep   Nso     Nmo    
   -------------------------
     A        592     592 
   -------------------------
    Total     592     592
   -------------------------

  ==> Iterations <==

                           Total Energy        Delta E     RMS |[F,P]|

   @DF-RHF iter SAD:  -459.85761989281679   -4.59858e+02   0.00000e+00 
   @DF-RHF iter   1:  -460.08219038436937   -2.24570e-01   3.75575e-04 ADIIS/DIIS
   @DF-RHF iter   2:  -460.10310407360498   -2.09137e-02   1.60826e-04 ADIIS/DIIS
   @DF-RHF iter   3:  -460.10616499655970   -3.06092e-03   2.75959e-05 DIIS
   @DF-RHF iter   4:  -460.10652774106876   -3.62745e-04   8.83602e-06 DIIS
   @DF-RHF iter   5:  -460.10657496843692   -4.72274e-05   1.56380e-06 DIIS
   @DF-RHF iter   6:  -460.10657624705090   -1.27861e-06   3.36892e-07 DIIS
   @DF-RHF iter   7:  -460.10657627215488   -2.51040e-08   7.25805e-08 DIIS
   @DF-RHF iter   8:  -460.10657627419783   -2.04295e-09   1.46217e-08 DIIS
   @DF-RHF iter   9:  -460.10657627428395   -8.61178e-11   2.19797e-09 DIIS
  Energy and wave function converged.


  ==> Post-Iterations <==

    Orbital Energies [Eh]
    ---------------------

    Doubly Occupied:                                                      

       1A   -104.853067     2A    -10.576352     3A     -8.043403  
       4A     -8.041832     5A     -8.041830     6A     -1.101155  
       7A     -0.605871     8A     -0.474631     9A     -0.474620  

    Virtual:                                                              

      10A      0.040947    11A      0.082181    12A      0.083516  
      13A      0.125013    14A      0.133553    15A      0.137162  
      16A      0.153857    17A      0.174529    18A      0.188152  
      19A      0.190801    20A      0.204353    21A      0.224890  
      22A      0.230910    23A      0.233744    24A      0.261564  
      25A      0.262220    26A      0.262269    27A      0.271551  
      28A      0.293449    29A      0.316652    30A      0.316734  
      31A      0.341127    32A      0.343959    33A      0.345524  
      34A      0.360204    35A      0.368826    36A      0.390611  
      37A      0.398245    38A      0.407973    39A      0.415100  
      40A      0.423081    41A      0.454792    42A      0.480278  
      43A      0.490847    44A      0.498650    45A      0.499112  
      46A      0.547930    47A      0.551997    48A      0.567681  
      49A      0.586299    50A      0.599767    51A      0.605748  
      52A      0.606463    53A      0.612152    54A      0.612584  
      55A      0.652986    56A      0.674337    57A      0.691604  
      58A      0.698953    59A      0.712794    60A      0.735430  
      61A      0.745884    62A      0.751573    63A      0.761843  
      64A      0.785532    65A      0.791334    66A      0.792909  
      67A      0.819187    68A      0.820072    69A      0.823278  
      70A      0.830529    71A      0.836511    72A      0.863965  
      73A      0.892846    74A      0.912759    75A      0.913087  
      76A      0.913905    77A      0.928495    78A      0.940888  
      79A      0.947442    80A      0.971252    81A      0.995650  
      82A      1.013556    83A      1.027194    84A      1.035623  
      85A      1.055990    86A      1.068915    87A      1.082098  
      88A      1.094735    89A      1.129626    90A      1.164080  
      91A      1.166771    92A      1.170248    93A      1.171268  
      94A      1.193930    95A      1.195588    96A      1.207932  
      97A      1.257211    98A      1.270119    99A      1.298409  
     100A      1.304040   101A      1.313431   102A      1.320404  
     103A      1.329260   104A      1.359168   105A      1.367415  
     106A      1.368606   107A      1.382736   108A      1.401054  
     109A      1.402199   110A      1.408253   111A      1.424216  
     112A      1.431742   113A      1.445699   114A      1.474465  
     115A      1.479498   116A      1.482514   117A      1.500503  
     118A      1.505205   119A      1.513102   120A      1.533128  
     121A      1.546782   122A      1.548939   123A      1.562555  
     124A      1.563093   125A      1.592894   126A      1.597138  
     127A      1.600583   128A      1.620833   129A      1.624109  
     130A      1.656854   131A      1.660628   132A      1.700051  
     133A      1.709323   134A      1.720828   135A      1.746729  
     136A      1.756134   137A      1.788178   138A      1.825143  
     139A      1.828448   140A      1.835074   141A      1.865079  
     142A      1.884381   143A      1.912328   144A      1.924353  
     145A      1.929349   146A      1.943996   147A      1.970467  
     148A      1.974719   149A      2.044163   150A      2.084389  
     151A      2.096098   152A      2.146349   153A      2.150748  
     154A      2.160409   155A      2.184038   156A      2.240344  
     157A      2.287933   158A      2.311235   159A      2.336193  
     160A      2.345506   161A      2.349069   162A      2.368165  
     163A      2.375000   164A      2.411956   165A      2.417982  
     166A      2.424434   167A      2.427574   168A      2.440858  
     169A      2.448581   170A      2.475755   171A      2.507576  
     172A      2.519538   173A      2.519738   174A      2.528162  
     175A      2.540460   176A      2.541883   177A      2.552425  
     178A      2.569916   179A      2.575244   180A      2.576664  
     181A      2.586791   182A      2.597267   183A      2.613536  
     184A      2.624056   185A      2.628541   186A      2.633156  
     187A      2.640752   188A      2.655395   189A      2.662783  
     190A      2.680948   191A      2.696974   192A      2.708086  
     193A      2.749112   194A      2.756451   195A      2.761610  
     196A      2.788497   197A      2.792249   198A      2.808036  
     199A      2.834276   200A      2.850962   201A      2.877305  
     202A      2.879102   203A      2.899166   204A      2.900542  
     205A      2.928326   206A      2.939230   207A      2.945078  
     208A      2.971437   209A      2.975800   210A      2.995687  
     211A      2.998938   212A      3.030359   213A      3.041060  
     214A      3.042953   215A      3.066657   216A      3.084100  
     217A      3.107642   218A      3.110704   219A      3.121614  
     220A      3.140730   221A      3.143729   222A      3.186103  
     223A      3.188071   224A      3.201474   225A      3.224355  
     226A      3.251187   227A      3.254577   228A      3.293582  
     229A      3.333626   230A      3.352572   231A      3.366409  
     232A      3.388180   233A      3.392142   234A      3.433841  
     235A      3.452821   236A      3.477268   237A      3.502723  
     238A      3.535753   239A      3.556509   240A      3.559198  
     241A      3.567623   242A      3.583684   243A      3.599373  
     244A      3.615442   245A      3.629067   246A      3.635626  
     247A      3.676499   248A      3.689762   249A      3.697616  
     250A      3.729034   251A      3.761982   252A      3.785395  
     253A      3.809590   254A      3.838994   255A      3.860062  
     256A      3.875145   257A      3.915889   258A      3.927633  
     259A      3.930558   260A      3.934302   261A      3.956674  
     262A      3.962374   263A      3.962632   264A      4.042514  
     265A      4.076707   266A      4.079813   267A      4.093680  
     268A      4.117552   269A      4.130980   270A      4.172713  
     271A      4.186432   272A      4.194273   273A      4.225162  
     274A      4.243740   275A      4.251659   276A      4.257690  
     277A      4.275809   278A      4.301054   279A      4.314422  
     280A      4.320248   281A      4.359573   282A      4.364943  
     283A      4.401438   284A      4.469727   285A      4.496617  
     286A      4.497082   287A      4.504885   288A      4.546352  
     289A      4.562611   290A      4.595147   291A      4.622924  
     292A      4.636149   293A      4.652452   294A      4.695324  
     295A      4.700275   296A      4.760318   297A      4.791369  
     298A      4.861850   299A      4.878382   300A      4.901591  
     301A      5.028114   302A      5.034274   303A      5.046898  
     304A      5.052653   305A      5.122783   306A      5.139196  
     307A      5.223010   308A      5.237306   309A      5.334966  
     310A      5.435146   311A      5.460766   312A      5.554489  
     313A      5.626103   314A      5.662535   315A      5.700453  
     316A      5.744225   317A      5.761453   318A      5.843938  
     319A      5.861762   320A      5.890456   321A      5.893131  
     322A      5.918436   323A      5.943237   324A      5.982973  
     325A      6.010940   326A      6.013961   327A      6.015828  
     328A      6.032201   329A      6.053959   330A      6.083493  
     331A      6.094916   332A      6.096276   333A      6.117330  
     334A      6.117886   335A      6.135624   336A      6.179653  
     337A      6.192941   338A      6.244189   339A      6.266928  
     340A      6.267912   341A      6.279898   342A      6.334512  
     343A      6.383003   344A      6.415841   345A      6.418792  
     346A      6.450339   347A      6.478466   348A      6.496636  
     349A      6.521629   350A      6.560250   351A      6.573318  
     352A      6.579901   353A      6.590111   354A      6.629896  
     355A      6.662063   356A      6.685756   357A      6.704260  
     358A      6.743911   359A      6.747762   360A      6.759585  
     361A      6.823686   362A      6.842762   363A      6.862328  
     364A      6.877170   365A      6.877362   366A      6.913829  
     367A      6.925383   368A      6.938501   369A      6.969408  
     370A      7.021634   371A      7.026224   372A      7.037118  
     373A      7.051701   374A      7.061112   375A      7.076052  
     376A      7.081522   377A      7.120181   378A      7.138590  
     379A      7.164378   380A      7.190354   381A      7.192580  
     382A      7.254507   383A      7.260485   384A      7.260680  
     385A      7.293170   386A      7.373753   387A      7.382900  
     388A      7.422204   389A      7.438276   390A      7.440099  
     391A      7.472042   392A      7.512416   393A      7.513189  
     394A      7.614978   395A      7.619975   396A      7.631561  
     397A      7.665636   398A      7.666430   399A      7.680889  
     400A      7.685113   401A      7.710764   402A      7.733480  
     403A      7.742877   404A      7.775709   405A      7.798076  
     406A      7.828610   407A      7.835394   408A      7.873892  
     409A      7.914156   410A      7.954707   411A      7.995918  
     412A      8.011279   413A      8.024372   414A      8.057276  
     415A      8.061636   416A      8.076973   417A      8.082541  
     418A      8.184512   419A      8.228464   420A      8.248999  
     421A      8.260383   422A      8.297533   423A      8.329701  
     424A      8.340462   425A      8.344952   426A      8.349553  
     427A      8.383714   428A      8.390954   429A      8.419986  
     430A      8.422346   431A      8.432438   432A      8.454915  
     433A      8.485523   434A      8.525031   435A      8.539655  
     436A      8.562816   437A      8.571877   438A      8.639941  
     439A      8.656344   440A      8.668665   441A      8.670952  
     442A      8.671774   443A      8.700259   444A      8.703446  
     445A      8.720431   446A      8.774286   447A      8.827839  
     448A      8.843866   449A      8.914365   450A      8.921512  
     451A      8.934333   452A      8.947620   453A      8.954356  
     454A      8.989812   455A      8.997010   456A      8.999838  
     457A      9.011879   458A      9.035787   459A      9.053695  
     460A      9.061956   461A      9.075728   462A      9.103323  
     463A      9.114400   464A      9.127469   465A      9.137138  
     466A      9.142068   467A      9.192257   468A      9.205296  
     469A      9.210584   470A      9.250035   471A      9.259769  
     472A      9.267331   473A      9.280144   474A      9.309322  
     475A      9.336825   476A      9.349729   477A      9.383197  
     478A      9.395241   479A      9.400290   480A      9.406897  
     481A      9.456490   482A      9.466856   483A      9.497889  
     484A      9.543573   485A      9.567728   486A      9.598134  
     487A      9.600709   488A      9.602008   489A      9.644283  
     490A      9.711685   491A      9.718015   492A      9.759090  
     493A      9.836628   494A      9.854080   495A      9.932049  
     496A     10.006368   497A     10.030848   498A     10.060165  
     499A     10.060703   500A     10.081517   501A     10.200154  
     502A     10.225443   503A     10.354767   504A     10.360279  
     505A     10.405113   506A     10.437702   507A     10.454131  
     508A     10.456311   509A     10.557454   510A     10.586492  
     511A     10.608557   512A     10.626231   513A     10.626992  
     514A     10.700982   515A     10.709164   516A     10.756419  
     517A     10.782607   518A     10.889753   519A     10.910298  
     520A     10.954342   521A     10.970296   522A     11.005795  
     523A     11.067700   524A     11.180087   525A     11.180996  
     526A     11.197948   527A     11.229041   528A     11.277975  
     529A     11.286702   530A     11.364295   531A     11.367191  
     532A     11.409032   533A     11.442596   534A     11.477780  
     535A     11.484148   536A     11.547350   537A     11.633474  
     538A     11.713785   539A     11.827349   540A     11.842456  
     541A     11.870034   542A     11.888839   543A     12.011298  
     544A     12.062357   545A     12.234592   546A     12.263500  
     547A     12.268186   548A     12.363920   549A     12.460630  
     550A     12.647959   551A     12.719851   552A     12.741333  
     553A     13.219062   554A     13.342885   555A     13.580120  
     556A     13.622154   557A     13.681644   558A     14.020592  
     559A     14.060544   560A     14.159619   561A     14.240004  
     562A     14.676958   563A     14.767624   564A     15.051189  
     565A     15.501984   566A     15.826892   567A     16.113395  
     568A     17.112484   569A     18.588988   570A     19.138591  
     571A     19.233185   572A     19.503402   573A     19.587595  
     574A     24.740961   575A     30.026928   576A     43.273509  
     577A     43.276706   578A     43.444447   579A     51.552150  
     580A     51.965052   581A     52.105829   582A     52.386367  
     583A     52.558216   584A     69.930089   585A    100.423413  
     586A    236.247502   587A    236.748642   588A    236.910523  
     589A    237.256255   590A    237.478625   591A    318.168070  
     592A    530.798442  

    Final Occupation by Irrep:
              A 
    DOCC [     9 ]
    NA   [     9 ]
    NB   [     9 ]

  @DF-RHF Final Energy:  -460.10657627428395

   => Energetics <=

    Nuclear Repulsion Energy =              6.5786294161364864
    One-Electron Energy =                -648.9448919948374623
    Two-Electron Energy =                 182.2596863044170163
    Total Energy =                       -460.1065762742840093

Computation Completed


Properties will be evaluated at   0.000000,   0.000000,   0.000000 [a0]

Properties computed using the SCF density matrix


 Multipole Moments:

 ------------------------------------------------------------------------------------
     Multipole            Electronic (a.u.)      Nuclear  (a.u.)        Total (a.u.)
 ------------------------------------------------------------------------------------

 L = 1.  Multiply by 2.5417464519 to convert [e a0] to [Debye]
 Dipole X            :          0.0000000            0.0000000            0.0000000
 Dipole Y            :         -0.0000000            0.0000000           -0.0000000
 Dipole Z            :        -97.8688255           97.3582103           -0.5106152
 Magnitude           :                                                    0.5106152

 ------------------------------------------------------------------------------------

*** tstop() called on cmpsrv002 at Thu Sep 19 14:54:31 2024
Module time:
	user time   =      33.02 seconds =       0.55 minutes
	system time =      11.20 seconds =       0.19 minutes
	total time  =       1224 seconds =      20.40 minutes
Total time:
	user time   =      87.35 seconds =       1.46 minutes
	system time =      17.89 seconds =       0.30 minutes
	total time  =       2308 seconds =      38.47 minutes
   => Libint2 <=

    Primary   basis highest AM E, G, H:  6, 6, 3
    Auxiliary basis highest AM E, G, H:  7, 7, 4
    Onebody   basis highest AM E, G, H:  -, -, -
    Solid Harmonics ordering:            Gaussian

*** tstart() called on cmpsrv002
*** at Thu Sep 19 14:54:31 2024

   => Loading Basis Set <=

    Name: THIS_BASIS
    Role: ORBITAL
    Keyword: BASIS
    atoms 1, 3-4, 11-13 entry H          line    15 file /home/vance/anaconda3/envs/p4env/share/psi4/basis/def2-qzvp.gbs 
    atoms 2             entry CL         line   809 file /home/vance/anaconda3/envs/p4env/share/psi4/basis/def2-qzvp.gbs 
    atoms 5-7, 9-10     entry C          line   194 file /home/vance/anaconda3/envs/p4env/share/psi4/basis/def2-qzvp.gbs 
    atoms 8             entry N          line   242 file /home/vance/anaconda3/envs/p4env/share/psi4/basis/def2-qzvp.gbs 


         ---------------------------------------------------------
                       SAPT(DFT): delta HF Monomer B               
         ---------------------------------------------------------
                                   SCF
               by Justin Turney, Rob Parrish, Andy Simmonett
                          and Daniel G. A. Smith
                              RHF Reference
                        4 Threads,   7629 MiB Core
         ---------------------------------------------------------

  ==> Geometry <==

    Molecular point group: c1
    Full point group: C2v

    Geometry (in Angstrom), charge = 0, multiplicity = 1:

       Center              X                  Y                   Z               Mass       
    ------------   -----------------  -----------------  -----------------  -----------------
      Gh(H)           0.000000000000     0.000000000000     1.570718119627     1.007825032230
      Gh(CL)          0.000000000000     0.000000000000     2.938178119627    34.968852682000
         H            0.000000000000    -2.147710000000    -2.523701880373     1.007825032230
         H            0.000000000000    -2.051420000000    -0.030171880373     1.007825032230
         C            0.000000000000     0.000000000000    -2.717501880373    12.000000000000
         C            0.000000000000    -1.196400000000    -2.013381880373    12.000000000000
         C            0.000000000000    -1.149310000000    -0.627451880373    12.000000000000
         N            0.000000000000     0.000000000000     0.045548119627    14.003074004430
         C           -0.000000000000     1.149310000000    -0.627451880373    12.000000000000
         C           -0.000000000000     1.196400000000    -2.013381880373    12.000000000000
         H           -0.000000000000     2.051420000000    -0.030171880373     1.007825032230
         H           -0.000000000000     2.147710000000    -2.523701880373     1.007825032230
         H            0.000000000000     0.000000000000    -3.798071880373     1.007825032230

  Running in c1 symmetry.

  Rotational constants: A =      0.20108  B =      0.03198  C =      0.02759 [cm^-1]
  Rotational constants: A =   6028.26605  B =    958.73489  C =    827.18022 [MHz]
  Nuclear repulsion =  206.982914488470726

  Charge       = 0
  Multiplicity = 1
  Electrons    = 42
  Nalpha       = 21
  Nbeta        = 21

  ==> Algorithm <==

  SCF Algorithm Type is DF.
  DIIS enabled.
  MOM disabled.
  Fractional occupation disabled.
  Guess Type is SAD.
  Energy threshold   = 1.00e-08
  Density threshold  = 1.00e-08
  Integral threshold = 1.00e-12

  ==> Primary Basis <==

  Basis Set: THIS_BASIS
    Blend: DEF2-QZVP
    Number of shells: 184
    Number of basis functions: 592
    Number of Cartesian functions: 728
    Spherical Harmonics?: true
    Max angular momentum: 4

   => Loading Basis Set <=

    Name: (THIS_BASIS AUX)
    Role: JKFIT
    Keyword: DF_BASIS_SCF
    atoms 1, 3-4, 11-13 entry H          line    18 file /home/vance/anaconda3/envs/p4env/share/psi4/basis/def2-universal-jkfit.gbs 
    atoms 2             entry CL         line   986 file /home/vance/anaconda3/envs/p4env/share/psi4/basis/def2-universal-jkfit.gbs 
    atoms 5-7, 9-10     entry C          line   198 file /home/vance/anaconda3/envs/p4env/share/psi4/basis/def2-universal-jkfit.gbs 
    atoms 8             entry N          line   258 file /home/vance/anaconda3/envs/p4env/share/psi4/basis/def2-universal-jkfit.gbs 

  ==> Integral Setup <==

  ==> DiskDFJK: Density-Fitted J/K Matrices <==

    J tasked:                  Yes
    K tasked:                  Yes
    wK tasked:                  No
    OpenMP threads:              4
    Integrals threads:           4
    Memory [MiB]:             5722
    Algorithm:                Core
    Integral Cache:           SAVE
    Schwarz Cutoff:          1E-12
    Fitting Condition:       1E-10

   => Auxiliary Basis Set <=

  Basis Set: (THIS_BASIS AUX)
    Blend: DEF2-UNIVERSAL-JKFIT
    Number of shells: 224
    Number of basis functions: 688
    Number of Cartesian functions: 813
    Spherical Harmonics?: true
    Max angular momentum: 4

  Minimum eigenvalue in the overlap matrix is 1.9489291044E-05.
  Reciprocal condition number of the overlap matrix is 1.7596768741E-06.
    Using symmetric orthogonalization.

  ==> Pre-Iterations <==

  SCF Guess: Superposition of Atomic Densities via on-the-fly atomic UHF (no occupation information).

   -------------------------
    Irrep   Nso     Nmo    
   -------------------------
     A        592     592 
   -------------------------
    Total     592     592
   -------------------------

  ==> Iterations <==

                           Total Energy        Delta E     RMS |[F,P]|

   @DF-RHF iter SAD:  -246.24944578465539   -2.46249e+02   0.00000e+00 
   @DF-RHF iter   1:  -246.65244575999301   -4.03000e-01   8.31444e-04 ADIIS/DIIS
   @DF-RHF iter   2:  -246.76971760901455   -1.17272e-01   3.85544e-04 ADIIS/DIIS
   @DF-RHF iter   3:  -246.79371765843212   -2.40000e-02   7.67549e-05 DIIS
   @DF-RHF iter   4:  -246.79513377306495   -1.41611e-03   2.43125e-05 DIIS
   @DF-RHF iter   5:  -246.79523382190249   -1.00049e-04   7.13775e-06 DIIS
   @DF-RHF iter   6:  -246.79524502524634   -1.12033e-05   1.71451e-06 DIIS
   @DF-RHF iter   7:  -246.79524592334334   -8.98097e-07   6.44053e-07 DIIS
   @DF-RHF iter   8:  -246.79524606084584   -1.37502e-07   2.89087e-07 DIIS
   @DF-RHF iter   9:  -246.79524611241843   -5.15726e-08   9.33483e-08 DIIS
   @DF-RHF iter  10:  -246.79524612063696   -8.21854e-09   3.16312e-08 DIIS
   @DF-RHF iter  11:  -246.79524612172418   -1.08722e-09   1.81199e-08 DIIS
   @DF-RHF iter  12:  -246.79524612194737   -2.23196e-10   4.15716e-09 DIIS
  Energy and wave function converged.


  ==> Post-Iterations <==

    Orbital Energies [Eh]
    ---------------------

    Doubly Occupied:                                                      

       1A    -15.560454     2A    -11.272211     3A    -11.272193  
       4A    -11.257400     5A    -11.239965     6A    -11.239910  
       7A     -1.259507     8A     -1.088826     9A     -1.037040  
      10A     -0.858517    11A     -0.858395    12A     -0.723772  
      13A     -0.662705    14A     -0.654404    15A     -0.602458  
      16A     -0.575816    17A     -0.543685    18A     -0.523241  
      19A     -0.413605    20A     -0.383636    21A     -0.349741  

    Virtual:                                                              

      22A      0.096978    23A      0.099384    24A      0.111273  
      25A      0.114053    26A      0.121147    27A      0.141453  
      28A      0.151404    29A      0.175167    30A      0.189042  
      31A      0.205792    32A      0.207674    33A      0.218295  
      34A      0.225318    35A      0.242024    36A      0.247052  
      37A      0.257297    38A      0.262265    39A      0.268266  
      40A      0.298437    41A      0.306667    42A      0.314991  
      43A      0.331282    44A      0.365561    45A      0.377029  
      46A      0.378498    47A      0.396392    48A      0.404059  
      49A      0.411098    50A      0.425969    51A      0.448228  
      52A      0.456270    53A      0.477830    54A      0.479097  
      55A      0.493627    56A      0.502399    57A      0.504884  
      58A      0.513597    59A      0.537839    60A      0.538446  
      61A      0.553166    62A      0.563880    63A      0.567070  
      64A      0.617904    65A      0.632887    66A      0.645268  
      67A      0.651703    68A      0.683194    69A      0.686758  
      70A      0.693670    71A      0.704454    72A      0.737852  
      73A      0.743900    74A      0.756445    75A      0.767215  
      76A      0.777236    77A      0.788022    78A      0.804123  
      79A      0.809213    80A      0.812091    81A      0.829599  
      82A      0.841728    83A      0.858286    84A      0.869557  
      85A      0.879880    86A      0.881678    87A      0.901011  
      88A      0.914850    89A      0.922979    90A      0.925548  
      91A      0.943684    92A      0.944506    93A      0.953317  
      94A      0.955551    95A      0.964139    96A      0.993706  
      97A      0.999234    98A      1.006936    99A      1.021088  
     100A      1.039322   101A      1.043506   102A      1.060440  
     103A      1.064171   104A      1.094546   105A      1.098945  
     106A      1.105031   107A      1.114636   108A      1.115954  
     109A      1.140938   110A      1.165811   111A      1.173155  
     112A      1.177169   113A      1.184879   114A      1.204216  
     115A      1.226615   116A      1.229919   117A      1.241616  
     118A      1.262394   119A      1.264122   120A      1.275154  
     121A      1.293823   122A      1.328064   123A      1.359176  
     124A      1.360870   125A      1.392046   126A      1.396721  
     127A      1.408577   128A      1.427352   129A      1.448332  
     130A      1.479158   131A      1.485693   132A      1.519493  
     133A      1.539481   134A      1.540507   135A      1.611208  
     136A      1.649272   137A      1.679273   138A      1.683489  
     139A      1.699738   140A      1.753124   141A      1.780895  
     142A      1.782784   143A      1.787669   144A      1.792110  
     145A      1.809364   146A      1.816843   147A      1.832059  
     148A      1.850791   149A      1.862245   150A      1.868514  
     151A      1.898669   152A      1.930610   153A      1.941632  
     154A      1.945291   155A      1.983641   156A      2.002293  
     157A      2.016769   158A      2.017052   159A      2.036503  
     160A      2.054139   161A      2.058979   162A      2.070369  
     163A      2.096234   164A      2.102161   165A      2.102957  
     166A      2.122177   167A      2.130908   168A      2.181105  
     169A      2.191098   170A      2.196862   171A      2.214357  
     172A      2.222641   173A      2.226256   174A      2.226583  
     175A      2.227057   176A      2.244957   177A      2.246152  
     178A      2.263383   179A      2.292055   180A      2.293088  
     181A      2.319918   182A      2.337159   183A      2.342049  
     184A      2.345697   185A      2.360436   186A      2.378810  
     187A      2.392763   188A      2.398193   189A      2.433935  
     190A      2.435887   191A      2.436954   192A      2.449491  
     193A      2.449737   194A      2.450819   195A      2.453603  
     196A      2.465494   197A      2.495304   198A      2.500302  
     199A      2.533245   200A      2.533373   201A      2.548321  
     202A      2.561508   203A      2.563159   204A      2.618188  
     205A      2.627440   206A      2.635598   207A      2.660579  
     208A      2.665995   209A      2.676784   210A      2.697364  
     211A      2.711535   212A      2.718211   213A      2.733759  
     214A      2.756233   215A      2.768488   216A      2.770496  
     217A      2.779227   218A      2.780439   219A      2.802282  
     220A      2.838630   221A      2.841993   222A      2.842190  
     223A      2.855366   224A      2.885555   225A      2.885758  
     226A      2.894530   227A      2.901025   228A      2.913802  
     229A      2.932036   230A      2.944825   231A      2.963644  
     232A      2.991453   233A      2.999840   234A      3.038223  
     235A      3.057257   236A      3.066978   237A      3.069714  
     238A      3.075519   239A      3.104859   240A      3.120209  
     241A      3.162194   242A      3.195325   243A      3.215839  
     244A      3.230088   245A      3.290591   246A      3.291893  
     247A      3.300932   248A      3.331368   249A      3.346509  
     250A      3.390904   251A      3.402689   252A      3.427769  
     253A      3.451733   254A      3.489789   255A      3.560452  
     256A      3.561123   257A      3.581232   258A      3.602165  
     259A      3.630769   260A      3.634884   261A      3.644567  
     262A      3.645278   263A      3.682440   264A      3.693069  
     265A      3.702400   266A      3.710682   267A      3.753956  
     268A      3.817858   269A      3.824603   270A      3.828412  
     271A      3.839042   272A      3.863191   273A      3.870342  
     274A      3.933139   275A      3.945247   276A      3.956905  
     277A      3.991426   278A      4.043302   279A      4.050764  
     280A      4.140461   281A      4.153907   282A      4.199320  
     283A      4.215730   284A      4.215829   285A      4.258159  
     286A      4.304954   287A      4.318682   288A      4.332072  
     289A      4.346656   290A      4.360090   291A      4.369007  
     292A      4.482432   293A      4.497750   294A      4.526709  
     295A      4.527407   296A      4.556166   297A      4.560371  
     298A      4.567791   299A      4.573436   300A      4.573576  
     301A      4.614183   302A      4.737808   303A      4.754791  
     304A      4.815289   305A      4.843810   306A      4.846970  
     307A      4.847892   308A      4.994534   309A      5.004263  
     310A      5.079901   311A      5.114251   312A      5.117183  
     313A      5.180878   314A      5.190877   315A      5.243428  
     316A      5.274457   317A      5.283016   318A      5.389966  
     319A      5.390684   320A      5.414330   321A      5.426266  
     322A      5.426436   323A      5.432172   324A      5.440335  
     325A      5.476614   326A      5.559169   327A      5.586473  
     328A      5.594341   329A      5.616814   330A      5.626207  
     331A      5.645534   332A      5.656623   333A      5.664252  
     334A      5.737387   335A      5.738868   336A      5.782284  
     337A      5.783729   338A      5.795008   339A      5.812615  
     340A      5.830057   341A      5.837718   342A      5.851892  
     343A      5.857591   344A      5.858121   345A      5.871564  
     346A      5.872068   347A      5.902798   348A      5.909531  
     349A      5.916930   350A      5.919747   351A      5.921939  
     352A      5.998102   353A      6.016781   354A      6.031384  
     355A      6.076969   356A      6.092602   357A      6.119323  
     358A      6.130000   359A      6.151519   360A      6.172157  
     361A      6.212232   362A      6.214609   363A      6.228105  
     364A      6.260899   365A      6.290389   366A      6.322259  
     367A      6.340070   368A      6.348465   369A      6.358374  
     370A      6.371318   371A      6.383795   372A      6.409322  
     373A      6.423762   374A      6.438533   375A      6.440081  
     376A      6.444317   377A      6.444952   378A      6.465132  
     379A      6.470315   380A      6.471046   381A      6.474705  
     382A      6.498449   383A      6.518478   384A      6.520832  
     385A      6.531105   386A      6.545447   387A      6.567252  
     388A      6.567383   389A      6.567505   390A      6.607373  
     391A      6.633063   392A      6.660645   393A      6.662501  
     394A      6.665840   395A      6.668192   396A      6.671677  
     397A      6.676819   398A      6.691691   399A      6.701394  
     400A      6.751075   401A      6.783699   402A      6.799259  
     403A      6.817770   404A      6.825350   405A      6.851800  
     406A      6.868778   407A      6.915148   408A      6.922690  
     409A      6.923098   410A      6.934504   411A      6.940967  
     412A      7.005338   413A      7.032614   414A      7.039792  
     415A      7.050052   416A      7.060978   417A      7.073345  
     418A      7.102313   419A      7.103979   420A      7.150419  
     421A      7.191780   422A      7.200583   423A      7.207428  
     424A      7.242290   425A      7.255784   426A      7.293024  
     427A      7.302058   428A      7.342360   429A      7.367714  
     430A      7.424074   431A      7.442279   432A      7.451926  
     433A      7.481923   434A      7.526311   435A      7.547675  
     436A      7.558526   437A      7.585775   438A      7.626823  
     439A      7.711829   440A      7.734681   441A      7.751719  
     442A      7.793727   443A      7.807391   444A      7.842160  
     445A      7.868710   446A      7.897577   447A      7.901232  
     448A      7.901899   449A      7.915010   450A      7.962160  
     451A      7.964011   452A      8.021932   453A      8.025132  
     454A      8.041631   455A      8.087041   456A      8.108440  
     457A      8.122805   458A      8.126523   459A      8.139065  
     460A      8.180444   461A      8.187319   462A      8.233396  
     463A      8.292957   464A      8.305536   465A      8.341260  
     466A      8.354091   467A      8.363743   468A      8.370240  
     469A      8.397626   470A      8.409123   471A      8.438157  
     472A      8.445538   473A      8.465753   474A      8.502660  
     475A      8.504537   476A      8.513855   477A      8.521583  
     478A      8.563565   479A      8.571556   480A      8.609847  
     481A      8.653306   482A      8.678199   483A      8.708613  
     484A      8.715528   485A      8.731706   486A      8.753878  
     487A      8.775796   488A      8.786625   489A      8.796385  
     490A      8.797064   491A      8.819298   492A      8.856387  
     493A      8.870133   494A      8.884258   495A      8.917953  
     496A      8.922660   497A      8.936222   498A      8.988202  
     499A      8.989535   500A      9.034901   501A      9.046048  
     502A      9.090704   503A      9.132650   504A      9.135257  
     505A      9.147508   506A      9.169054   507A      9.213725  
     508A      9.236312   509A      9.326782   510A      9.328772  
     511A      9.338093   512A      9.527130   513A      9.562292  
     514A      9.575991   515A      9.601820   516A      9.613584  
     517A      9.682743   518A      9.701445   519A      9.763400  
     520A      9.829175   521A      9.831027   522A      9.869251  
     523A      9.970603   524A      9.980596   525A     10.033021  
     526A     10.066974   527A     10.099978   528A     10.151187  
     529A     10.162848   530A     10.169844   531A     10.196032  
     532A     10.220963   533A     10.286689   534A     10.311978  
     535A     10.344681   536A     10.387876   537A     10.478342  
     538A     10.478822   539A     10.565966   540A     10.604390  
     541A     10.609913   542A     10.624005   543A     10.714992  
     544A     10.769149   545A     10.869095   546A     10.940164  
     547A     11.050290   548A     11.133893   549A     11.206051  
     550A     11.208128   551A     11.229643   552A     11.312076  
     553A     11.502981   554A     11.762736   555A     12.268579  
     556A     12.322000   557A     12.514820   558A     12.603370  
     559A     12.821187   560A     12.905039   561A     13.187599  
     562A     13.238852   563A     13.437276   564A     13.694000  
     565A     15.581204   566A     21.730071   567A     21.749247  
     568A     21.753433   569A     21.756559   570A     21.882939  
     571A     21.916433   572A     22.006352   573A     22.662484  
     574A     29.001474   575A     29.504096   576A     29.676955  
     577A     30.021628   578A     30.221526   579A     35.890800  
     580A     38.955449   581A     85.731733   582A    118.205182  
     583A    118.205766   584A    118.246514   585A    149.573904  
     586A    150.060495   587A    150.211489   588A    150.557583  
     589A    150.774605   590A    200.098027   591A    234.230202  
     592A   1052.230455  

    Final Occupation by Irrep:
              A 
    DOCC [    21 ]
    NA   [    21 ]
    NB   [    21 ]

  @DF-RHF Final Energy:  -246.79524612194737

   => Energetics <=

    Nuclear Repulsion Energy =            206.9829144884707262
    One-Electron Energy =                -742.8013604245140868
    Two-Electron Energy =                 289.0231998140960741
    Total Energy =                       -246.7952461219473435

Computation Completed


Properties will be evaluated at   0.000000,   0.000000,   0.000000 [a0]

Properties computed using the SCF density matrix


 Multipole Moments:

 ------------------------------------------------------------------------------------
     Multipole            Electronic (a.u.)      Nuclear  (a.u.)        Total (a.u.)
 ------------------------------------------------------------------------------------

 L = 1.  Multiply by 2.5417464519 to convert [e a0] to [Debye]
 Dipole X            :          0.0000000           -0.0000000            0.0000000
 Dipole Y            :          0.0000000           -0.0000000            0.0000000
 Dipole Z            :        106.0371714         -106.9244817           -0.8873103
 Magnitude           :                                                    0.8873103

 ------------------------------------------------------------------------------------

*** tstop() called on cmpsrv002 at Thu Sep 19 15:09:59 2024
Module time:
	user time   =      69.90 seconds =       1.17 minutes
	system time =       5.18 seconds =       0.09 minutes
	total time  =        928 seconds =      15.47 minutes
Total time:
	user time   =     157.26 seconds =       2.62 minutes
	system time =      23.07 seconds =       0.38 minutes
	total time  =       3236 seconds =      53.93 minutes

         ---------------------------------------------------------
                        SAPT(DFT): delta HF Segment                

                   by Daniel G. A. Smith and Rob Parrish           
         ---------------------------------------------------------


  ==> Preparing SAPT Data Cache <== 

  ==> DiskDFJK: Density-Fitted J/K Matrices <==

    J tasked:                  Yes
    K tasked:                  Yes
    wK tasked:                  No
    OpenMP threads:              4
    Integrals threads:           4
    Memory [MiB]:             5722
    Algorithm:                Core
    Integral Cache:           SAVE
    Schwarz Cutoff:          1E-12
    Fitting Condition:       1E-10

   => Auxiliary Basis Set <=

  Basis Set: (THIS_BASIS AUX)
    Blend: DEF2-UNIVERSAL-JKFIT
    Number of shells: 224
    Number of basis functions: 688
    Number of Cartesian functions: 813
    Spherical Harmonics?: true
    Max angular momentum: 4


  ==> E10 Electostatics <== 

    Elst10,r                        -48.93542063 [mEh]

  ==> E10 Exchange <== 

    Exch10(S^2)                      73.67979901 [mEh]
    Exch10                           77.67497191 [mEh]

  ==> E20 Induction <== 

   => Uncoupled Induction <= 

    Ind20,u (A<-B)                  -13.28699840 [mEh]
    Ind20,u (A->B)                  -21.70514351 [mEh]
    Ind20,u                         -34.99214191 [mEh]
    Exch-Ind20,u (A<-B)               9.84165814 [mEh]
    Exch-Ind20,u (A->B)               9.01279509 [mEh]
    Exch-Ind20,u                     18.85445323 [mEh]
    Exch-Ind20,u (A<-B) (S^inf)      11.05949891 [mEh]
    Exch-Ind20,u (A->B) (S^inf)      10.43501898 [mEh]
    Exch-Ind20,u (S^inf)             21.49451789 [mEh]

   => Coupled Induction <= 

   ---------------------------------------------------
              SAPT Coupled Induction Solver           
   ---------------------------------------------------
    Maxiter             =          20
    Convergence         =   1.000E-06
   ---------------------------------------------------
     Iter       (A<-B)           (B->A)      Time [s]
   ---------------------------------------------------
    Guess    1.181166e-01     1.831830e-01          5
        1    4.070445e-02     9.552353e-02         11
        2    5.002199e-03     2.351874e-02         17
        3    1.458527e-03     1.074328e-02         22
        4    4.380454e-04     4.667903e-03         29
        5    7.705889e-05     2.075238e-03         34
        6    1.941007e-05     6.221744e-04         40
        7    3.461156e-06     2.150036e-04         46
        8    4.828038e-07*    4.539675e-05         52
        9    4.828038e-07*    1.144578e-05         55
       10    4.828038e-07*    3.513246e-06         58
       11    4.828038e-07*    1.040537e-06         61
       12    4.828038e-07*    2.115303e-07*        64
   ---------------------------------------------------

    Ind20,r (A<-B)                  -15.57641547 [mEh]
    Ind20,r (A->B)                  -27.74639268 [mEh]
    Ind20,r                         -43.32280815 [mEh]
    Exch-Ind20,r (A<-B)              11.98526415 [mEh]
    Exch-Ind20,r (A->B)              12.95845899 [mEh]
    Exch-Ind20,r                     24.94372315 [mEh]
    Exch-Ind20,r (A<-B) (S^inf)      13.51210245 [mEh]
    Exch-Ind20,r (A->B) (S^inf)      15.06973032 [mEh]
    Exch-Ind20,r (S^inf)             28.58183277 [mEh]

   Partial SAPT(HF) Results, to compute Delta HF (dHF)
  ---------------------------------------------------------------------------------------------------------
    Electrostatics                  -48.93542063 [mEh]    -30.70744005 [kcal/mol]   -128.47992917 [kJ/mol]
      Elst10,r                      -48.93542063 [mEh]    -30.70744005 [kcal/mol]   -128.47992917 [kJ/mol]

    Exchange                         77.67497191 [mEh]     48.74178075 [kcal/mol]    203.93561065 [kJ/mol]
      Exch10                         77.67497191 [mEh]     48.74178075 [kcal/mol]    203.93561065 [kJ/mol]
      Exch10(S^2)                    73.67979901 [mEh]     46.23477191 [kcal/mol]    193.44628566 [kJ/mol]

    Induction (no dHF)              -18.37908500 [mEh]    -11.53304996 [kcal/mol]    -48.25428103 [kJ/mol]
      Ind20,r                       -43.32280815 [mEh]    -27.18547254 [kcal/mol]   -113.74401712 [kJ/mol]
      Exch-Ind20,r                   24.94372315 [mEh]     15.65242259 [kcal/mol]     65.48973610 [kJ/mol]
      Induction (A<-B) (no dHF)      -3.59115132 [mEh]     -2.25348147 [kcal/mol]     -9.42856649 [kJ/mol]
      Induction (A->B) (no dHF)     -14.78793368 [mEh]     -9.27956848 [kcal/mol]    -38.82571454 [kJ/mol]

    Subtotal SAPT(HF)                10.36046628 [mEh]      6.50129074 [kcal/mol]     27.20140046 [kJ/mol]
    Total HF                         -9.22737382 [mEh]     -5.79026449 [kcal/mol]    -24.22646663 [kJ/mol]
    Delta HF                        -19.58784010 [mEh]    -12.29155523 [kcal/mol]    -51.42786709 [kJ/mol]
  ---------------------------------------------------------------------------------------------------------
   Partial SAPT(HF) Results, alternate SAPT0-like display
  ---------------------------------------------------------------------------------------------------------
    Induction                       -37.96692510 [mEh]    -23.82460519 [kcal/mol]    -99.68214812 [kJ/mol]
      Ind20,r                       -43.32280815 [mEh]    -27.18547254 [kcal/mol]   -113.74401712 [kJ/mol]
      Exch-Ind20,r                   24.94372315 [mEh]     15.65242259 [kcal/mol]     65.48973610 [kJ/mol]
      delta HF,r (2)                -19.58784010 [mEh]    -12.29155523 [kcal/mol]    -51.42786709 [kJ/mol]
      Induction (A<-B)               -7.41848537 [mEh]     -4.65516985 [kcal/mol]    -19.47723065 [kJ/mol]
      Induction (A->B)              -30.54843973 [mEh]    -19.16943534 [kcal/mol]    -80.20491747 [kJ/mol]
  ---------------------------------------------------------------------------------------------------------
   => Libint2 <=

    Primary   basis highest AM E, G, H:  6, 6, 3
    Auxiliary basis highest AM E, G, H:  7, 7, 4
    Onebody   basis highest AM E, G, H:  -, -, -
    Solid Harmonics ordering:            Gaussian

*** tstart() called on cmpsrv002
*** at Thu Sep 19 15:11:34 2024

   => Loading Basis Set <=

    Name: THIS_BASIS
    Role: ORBITAL
    Keyword: BASIS
    atoms 1, 3-4, 11-13 entry H          line    15 file /home/vance/anaconda3/envs/p4env/share/psi4/basis/def2-qzvp.gbs 
    atoms 2             entry CL         line   809 file /home/vance/anaconda3/envs/p4env/share/psi4/basis/def2-qzvp.gbs 
    atoms 5-7, 9-10     entry C          line   194 file /home/vance/anaconda3/envs/p4env/share/psi4/basis/def2-qzvp.gbs 
    atoms 8             entry N          line   242 file /home/vance/anaconda3/envs/p4env/share/psi4/basis/def2-qzvp.gbs 


         ---------------------------------------------------------
                          SAPT(DFT): DFT Monomer A                 
         ---------------------------------------------------------
                                   SCF
               by Justin Turney, Rob Parrish, Andy Simmonett
                          and Daniel G. A. Smith
                              RKS Reference
                        4 Threads,   7629 MiB Core
         ---------------------------------------------------------

  ==> Geometry <==

    Molecular point group: c1
    Full point group: C2v

    Geometry (in Angstrom), charge = 0, multiplicity = 1:

       Center              X                  Y                   Z               Mass       
    ------------   -----------------  -----------------  -----------------  -----------------
         H            0.000000000000     0.000000000000     1.570718119627     1.007825032230
         CL           0.000000000000     0.000000000000     2.938178119627    34.968852682000
      Gh(H)           0.000000000000    -2.147710000000    -2.523701880373     1.007825032230
      Gh(H)           0.000000000000    -2.051420000000    -0.030171880373     1.007825032230
      Gh(C)           0.000000000000     0.000000000000    -2.717501880373    12.000000000000
      Gh(C)           0.000000000000    -1.196400000000    -2.013381880373    12.000000000000
      Gh(C)           0.000000000000    -1.149310000000    -0.627451880373    12.000000000000
      Gh(N)           0.000000000000     0.000000000000     0.045548119627    14.003074004430
      Gh(C)          -0.000000000000     1.149310000000    -0.627451880373    12.000000000000
      Gh(C)          -0.000000000000     1.196400000000    -2.013381880373    12.000000000000
      Gh(H)          -0.000000000000     2.051420000000    -0.030171880373     1.007825032230
      Gh(H)          -0.000000000000     2.147710000000    -2.523701880373     1.007825032230
      Gh(H)           0.000000000000     0.000000000000    -3.798071880373     1.007825032230

  Running in c1 symmetry.

  Rotational constants: A =      0.20108  B =      0.03198  C =      0.02759 [cm^-1]
  Rotational constants: A =   6028.26605  B =    958.73489  C =    827.18022 [MHz]
  Nuclear repulsion =    6.578629416136486

  Charge       = 0
  Multiplicity = 1
  Electrons    = 18
  Nalpha       = 9
  Nbeta        = 9

  ==> Algorithm <==

  SCF Algorithm Type is DF.
  DIIS enabled.
  MOM disabled.
  Fractional occupation disabled.
  Guess Type is SAD.
  Energy threshold   = 1.00e-08
  Density threshold  = 1.00e-08
  Integral threshold = 1.00e-12

  ==> Primary Basis <==

  Basis Set: THIS_BASIS
    Blend: DEF2-QZVP
    Number of shells: 184
    Number of basis functions: 592
    Number of Cartesian functions: 728
    Spherical Harmonics?: true
    Max angular momentum: 4

  ==> DFT Potential <==

   => LibXC <=

    Version 6.2.2
[...]

      22A     -0.107174    23A     -0.094491    24A     -0.052211  
      25A     -0.029967    26A     -0.025454    27A      0.000979  
      28A      0.002041    29A      0.036407    30A      0.037000  
      31A      0.038750    32A      0.058484    33A      0.062058  
      34A      0.081970    35A      0.082042    36A      0.090147  
      37A      0.099415    38A      0.105004    39A      0.119789  
      40A      0.134189    41A      0.155779    42A      0.171578  
      43A      0.177975    44A      0.184363    45A      0.191233  
      46A      0.205861    47A      0.210900    48A      0.219791  
      49A      0.235162    50A      0.242884    51A      0.244070  
      52A      0.251863    53A      0.271672    54A      0.277738  
      55A      0.278382    56A      0.311447    57A      0.317095  
      58A      0.329159    59A      0.346549    60A      0.347478  
      61A      0.361089    62A      0.375397    63A      0.386788  
      64A      0.416303    65A      0.435450    66A      0.441365  
      67A      0.454857    68A      0.457851    69A      0.466003  
      70A      0.484884    71A      0.487383    72A      0.505819  
      73A      0.559451    74A      0.568522    75A      0.571494  
      76A      0.575062    77A      0.577954    78A      0.595813  
      79A      0.619784    80A      0.625072    81A      0.631238  
      82A      0.654819    83A      0.659958    84A      0.663084  
      85A      0.675211    86A      0.680542    87A      0.680823  
      88A      0.686131    89A      0.686233    90A      0.691693  
      91A      0.696836    92A      0.699990    93A      0.728428  
      94A      0.737186    95A      0.757460    96A      0.772399  
      97A      0.779477    98A      0.798084    99A      0.807985  
     100A      0.824905   101A      0.833282   102A      0.835544  
     103A      0.845439   104A      0.856857   105A      0.859152  
     106A      0.876431   107A      0.886168   108A      0.911550  
     109A      0.915005   110A      0.942906   111A      0.947096  
     112A      0.954533   113A      0.956965   114A      0.972953  
     115A      0.981666   116A      0.990374   117A      1.011183  
     118A      1.012211   119A      1.037818   120A      1.045384  
     121A      1.059856   122A      1.068933   123A      1.101567  
     124A      1.122261   125A      1.125539   126A      1.148781  
     127A      1.168265   128A      1.201576   129A      1.210760  
     130A      1.235692   131A      1.245616   132A      1.247659  
     133A      1.288884   134A      1.292734   135A      1.370541  
     136A      1.387046   137A      1.397954   138A      1.421747  
     139A      1.464418   140A      1.506368   141A      1.507374  
     142A      1.527316   143A      1.529876   144A      1.555682  
     145A      1.557868   146A      1.590529   147A      1.598738  
     148A      1.619281   149A      1.631194   150A      1.633389  
     151A      1.666336   152A      1.684534   153A      1.693075  
     154A      1.696666   155A      1.697589   156A      1.713275  
     157A      1.726190   158A      1.736335   159A      1.743125  
     160A      1.747964   161A      1.757930   162A      1.766614  
     163A      1.795838   164A      1.810679   165A      1.828967  
     166A      1.862470   167A      1.894464   168A      1.895995  
     169A      1.907695   170A      1.908973   171A      1.917969  
     172A      1.930900   173A      1.934331   174A      1.939157  
     175A      1.943537   176A      1.974874   177A      1.991004  
     178A      2.000098   179A      2.010516   180A      2.018753  
     181A      2.018944   182A      2.020540   183A      2.032444  
     184A      2.050620   185A      2.080498   186A      2.086493  
     187A      2.090197   188A      2.118350   189A      2.122293  
     190A      2.150915   191A      2.157009   192A      2.159272  
     193A      2.178410   194A      2.190365   195A      2.201136  
     196A      2.228372   197A      2.235094   198A      2.266926  
     199A      2.270520   200A      2.293591   201A      2.300026  
     202A      2.307210   203A      2.315957   204A      2.341622  
     205A      2.345813   206A      2.353605   207A      2.358488  
     208A      2.367727   209A      2.388630   210A      2.389285  
     211A      2.395018   212A      2.426193   213A      2.448552  
     214A      2.460349   215A      2.461106   216A      2.469456  
     217A      2.472605   218A      2.474618   219A      2.496558  
     220A      2.521813   221A      2.531602   222A      2.533231  
     223A      2.544271   224A      2.558720   225A      2.579381  
     226A      2.584095   227A      2.584461   228A      2.598048  
     229A      2.612370   230A      2.626636   231A      2.647809  
     232A      2.666904   233A      2.701618   234A      2.726023  
     235A      2.735509   236A      2.739070   237A      2.753410  
     238A      2.766567   239A      2.780450   240A      2.810409  
     241A      2.849618   242A      2.886076   243A      2.900749  
     244A      2.910979   245A      2.939542   246A      2.958618  
     247A      2.972156   248A      2.974399   249A      3.031153  
     250A      3.046112   251A      3.047193   252A      3.118604  
     253A      3.132503   254A      3.134460   255A      3.215714  
     256A      3.232552   257A      3.254239   258A      3.254757  
     259A      3.265656   260A      3.295830   261A      3.297283  
     262A      3.299844   263A      3.315696   264A      3.327447  
     265A      3.347363   266A      3.369558   267A      3.387636  
     268A      3.444642   269A      3.444977   270A      3.454050  
     271A      3.469031   272A      3.491564   273A      3.514604  
     274A      3.561354   275A      3.567853   276A      3.598235  
     277A      3.604343   278A      3.649160   279A      3.658255  
     280A      3.751952   281A      3.799739   282A      3.810727  
     283A      3.812533   284A      3.837282   285A      3.867949  
     286A      3.924462   287A      3.938630   288A      3.942324  
     289A      3.948302   290A      3.965654   291A      4.055400  
     292A      4.090733   293A      4.113042   294A      4.125961  
     295A      4.129506   296A      4.169776   297A      4.244840  
     298A      4.371544   299A      4.414704   300A      4.431845  
     301A      4.433072   302A      4.450390   303A      4.450593  
     304A      4.450603   305A      4.471513   306A      4.546093  
     307A      4.591331   308A      4.594700   309A      4.611812  
     310A      4.677979   311A      4.694882   312A      4.727866  
     313A      4.749122   314A      4.759637   315A      4.815580  
     316A      4.841962   317A      4.851787   318A      4.964616  
     319A      4.981051   320A      4.987590   321A      4.997560  
     322A      5.009899   323A      5.055358   324A      5.127415  
     325A      5.165012   326A      5.176857   327A      5.186890  
     328A      5.195725   329A      5.245112   330A      5.256792  
     331A      5.265000   332A      5.304560   333A      5.310507  
     334A      5.342063   335A      5.351016   336A      5.372803  
     337A      5.372891   338A      5.422204   339A      5.445634  
     340A      5.449127   341A      5.452390   342A      5.474959  
     343A      5.494626   344A      5.497102   345A      5.556369  
     346A      5.573784   347A      5.579462   348A      5.580595  
     349A      5.634843   350A      5.669303   351A      5.685263  
     352A      5.702671   353A      5.715169   354A      5.717027  
     355A      5.723133   356A      5.727232   357A      5.736288  
     358A      5.749236   359A      5.763321   360A      5.786325  
     361A      5.789210   362A      5.814688   363A      5.832123  
     364A      5.862561   365A      5.878207   366A      5.908316  
     367A      5.922575   368A      5.935806   369A      5.940994  
     370A      5.950931   371A      5.989168   372A      5.994099  
     373A      5.997079   374A      6.014461   375A      6.020662  
     376A      6.032819   377A      6.067714   378A      6.080526  
     379A      6.086233   380A      6.094406   381A      6.113158  
     382A      6.117659   383A      6.127377   384A      6.128678  
     385A      6.180788   386A      6.189221   387A      6.199020  
     388A      6.204387   389A      6.215604   390A      6.221880  
     391A      6.225941   392A      6.229984   393A      6.237705  
     394A      6.252414   395A      6.265713   396A      6.267617  
     397A      6.293575   398A      6.302563   399A      6.332062  
     400A      6.349575   401A      6.379470   402A      6.399445  
     403A      6.410208   404A      6.411112   405A      6.473918  
     406A      6.479148   407A      6.481929   408A      6.501962  
     409A      6.514186   410A      6.562509   411A      6.577426  
     412A      6.595905   413A      6.597116   414A      6.612585  
     415A      6.626392   416A      6.634172   417A      6.646287  
     418A      6.654897   419A      6.674953   420A      6.712252  
     421A      6.727227   422A      6.738378   423A      6.807227  
     424A      6.813058   425A      6.882589   426A      6.883415  
     427A      6.904013   428A      6.929395   429A      6.958250  
     430A      6.960613   431A      6.996111   432A      7.010141  
     433A      7.056648   434A      7.058500   435A      7.087153  
     436A      7.101721   437A      7.112572   438A      7.162317  
     439A      7.268669   440A      7.302646   441A      7.333868  
     442A      7.358204   443A      7.365975   444A      7.380941  
     445A      7.410138   446A      7.441728   447A      7.443948  
     448A      7.465588   449A      7.489817   450A      7.525675  
     451A      7.539574   452A      7.570075   453A      7.609561  
     454A      7.624153   455A      7.634919   456A      7.654835  
     457A      7.687015   458A      7.693475   459A      7.716916  
     460A      7.743098   461A      7.778537   462A      7.800413  
     463A      7.852796   464A      7.874891   465A      7.913761  
     466A      7.913865   467A      7.913922   468A      7.925929  
     469A      7.960548   470A      7.963976   471A      7.992941  
     472A      8.023488   473A      8.054759   474A      8.058647  
     475A      8.064010   476A      8.084382   477A      8.090168  
     478A      8.146007   479A      8.161558   480A      8.189326  
     481A      8.259848   482A      8.259986   483A      8.260725  
     484A      8.269156   485A      8.278341   486A      8.290487  
     487A      8.313385   488A      8.331219   489A      8.334758  
     490A      8.336122   491A      8.376347   492A      8.391245  
     493A      8.399891   494A      8.404091   495A      8.437875  
     496A      8.475296   497A      8.489342   498A      8.519001  
     499A      8.551537   500A      8.563247   501A      8.633432  
     502A      8.670147   503A      8.677662   504A      8.717581  
     505A      8.746884   506A      8.747944   507A      8.760267  
     508A      8.842756   509A      8.872436   510A      8.874826  
     511A      8.895113   512A      9.047680   513A      9.067075  
     514A      9.120218   515A      9.145211   516A      9.213601  
     517A      9.218559   518A      9.264353   519A      9.321233  
     520A      9.324922   521A      9.415617   522A      9.465924  
     523A      9.500983   524A      9.553902   525A      9.566041  
     526A      9.602649   527A      9.655665   528A      9.679650  
     529A      9.693773   530A      9.722973   531A      9.731927  
     532A      9.755658   533A      9.823259   534A      9.841853  
     535A      9.845499   536A      9.933467   537A      9.998688  
     538A     10.004951   539A     10.057178   540A     10.062522  
     541A     10.074972   542A     10.109965   543A     10.183882  
     544A     10.278219   545A     10.394662   546A     10.397988  
     547A     10.507546   548A     10.595826   549A     10.633718  
     550A     10.694043   551A     10.795807   552A     10.797897  
     553A     10.998064   554A     11.229829   555A     11.750307  
     556A     11.892093   557A     11.974447   558A     12.008585  
     559A     12.293321   560A     12.437602   561A     12.646692  
     562A     12.722733   563A     12.903892   564A     13.160765  
     565A     15.451183   566A     21.603057   567A     21.619566  
     568A     21.626081   569A     21.626882   570A     21.751716  
     571A     21.785411   572A     21.881005   573A     22.528703  
     574A     28.031026   575A     28.533083   576A     28.709363  
     577A     29.050143   578A     29.248680   579A     35.760590  
     580A     37.820649   581A     85.600687   582A    118.073283  
     583A    118.073850   584A    118.114788   585A    147.246191  
     586A    147.732426   587A    147.886321   588A    148.228650  
     589A    148.444244   590A    197.332090   591A    234.098652  
     592A   1052.099391  

    Final Occupation by Irrep:
              A 
    DOCC [    21 ]
    NA   [    21 ]
    NB   [    21 ]

  @DF-RKS Final Energy:  -248.09020183285011

   => Energetics <=

    Nuclear Repulsion Energy =            206.9829144884707262
    One-Electron Energy =                -743.5467597528352144
    Two-Electron Energy =                 315.5183299911603285
    DFT Exchange-Correlation Energy =     -27.0446865596459176
    Empirical Dispersion Energy =           0.0000000000000000
    VV10 Nonlocal Energy =                  0.0000000000000000
    Total Energy =                       -248.0902018328501413

Computation Completed


Properties will be evaluated at   0.000000,   0.000000,   0.000000 [a0]

Properties computed using the SCF density matrix


 Multipole Moments:

 ------------------------------------------------------------------------------------
     Multipole            Electronic (a.u.)      Nuclear  (a.u.)        Total (a.u.)
 ------------------------------------------------------------------------------------

 L = 1.  Multiply by 2.5417464519 to convert [e a0] to [Debye]
 Dipole X            :         -0.0000000           -0.0000000           -0.0000000
 Dipole Y            :          0.0000000           -0.0000000            0.0000000
 Dipole Z            :        106.0576961         -106.9244817           -0.8667856
 Magnitude           :                                                    0.8667856

 ------------------------------------------------------------------------------------

*** tstop() called on cmpsrv002 at Thu Sep 19 15:26:05 2024
Module time:
	user time   =     402.74 seconds =       6.71 minutes
	system time =       8.61 seconds =       0.14 minutes
	total time  =        401 seconds =       6.68 minutes
Total time:
	user time   =     965.01 seconds =      16.08 minutes
	system time =      40.87 seconds =       0.68 minutes
	total time  =       4202 seconds =      70.03 minutes

         ---------------------------------------------------------
               SAPT(DFT): Intermolecular Interaction Segment       

                   by Daniel G. A. Smith and Rob Parrish           
         ---------------------------------------------------------

  ==> Algorithm <==

   SAPT DFT Functional             PBE0
   Monomer A GRAC Shift        0.116251
   Monomer B GRAC Shift        0.074627
   Delta HF                        True
   JK Algorithm                      DF

  ==> Preparing SAPT Data Cache <== 

  ==> DiskDFJK: Density-Fitted J/K Matrices <==

    J tasked:                  Yes
    K tasked:                  Yes
    wK tasked:                  No
    OpenMP threads:              4
    Integrals threads:           4
    Memory [MiB]:             2717
    Algorithm:                Core
    Integral Cache:           SAVE
    Schwarz Cutoff:          1E-12
    Fitting Condition:       1E-10

   => Auxiliary Basis Set <=

  Basis Set: (THIS_BASIS AUX)
    Blend: DEF2-UNIVERSAL-JKFIT
    Number of shells: 224
    Number of basis functions: 688
    Number of Cartesian functions: 813
    Spherical Harmonics?: true
    Max angular momentum: 4


  ==> E10 Electostatics <== 

    Elst10,r                        -47.15905746 [mEh]

  ==> E10 Exchange <== 

    Exch10(S^2)                      75.09085498 [mEh]
    Exch10                           79.20655672 [mEh]

  ==> E20 Induction <== 

   => Uncoupled Induction <= 

    Ind20,u (A<-B)                  -16.20547832 [mEh]
    Ind20,u (A->B)                  -30.22196131 [mEh]
    Ind20,u                         -46.42743964 [mEh]
    Exch-Ind20,u (A<-B)              12.34205555 [mEh]
    Exch-Ind20,u (A->B)              14.27348417 [mEh]
    Exch-Ind20,u                     26.61553971 [mEh]
    Exch-Ind20,u (A<-B) (S^inf)      13.90115973 [mEh]
    Exch-Ind20,u (A->B) (S^inf)      16.40148940 [mEh]
    Exch-Ind20,u (S^inf)             30.30264912 [mEh]

   => Coupled Induction <= 

   ---------------------------------------------------
              SAPT Coupled Induction Solver           
   ---------------------------------------------------
    Maxiter             =          20
    Convergence         =   1.000E-06
   ---------------------------------------------------
     Iter       (A<-B)           (B->A)      Time [s]
   ---------------------------------------------------
    Guess    1.286861e-01     2.267683e-01         38
        1    3.086459e-02     7.711232e-02         76
        2    9.388061e-03     2.515579e-02        117
        3    1.953707e-03     8.528459e-03        159
        4    1.751409e-04     1.660168e-03        199
        5    3.378458e-05     5.472944e-04        248
        6    3.280692e-06     1.032556e-04        321
        7    2.935410e-07*    2.929946e-05        396
        8    2.935410e-07*    8.812149e-06        416
        9    2.935410e-07*    1.699157e-06        444
       10    2.935410e-07*    3.654459e-07*       482
   ---------------------------------------------------

    Ind20,r (A<-B)                  -16.79374298 [mEh]
    Ind20,r (A->B)                  -31.69047063 [mEh]
    Ind20,r                         -48.48421362 [mEh]
    Exch-Ind20,r (A<-B)              13.36216247 [mEh]
    Exch-Ind20,r (A->B)              16.77993607 [mEh]
    Exch-Ind20,r                     30.14209854 [mEh]
    Exch-Ind20,r (A<-B) (S^inf)      15.06489051 [mEh]
    Exch-Ind20,r (A->B) (S^inf)      19.27664997 [mEh]
    Exch-Ind20,r (S^inf)             34.34154048 [mEh]
   => Loading Basis Set <=

    Name: (THIS_BASIS AUX)
    Role: RIFIT
    Keyword: DF_BASIS_MP2
    atoms 1, 3-4, 11-13 entry H          line    23 file /home/vance/anaconda3/envs/p4env/share/psi4/basis/def2-qzvp-ri.gbs 
    atoms 2             entry CL         line  1113 file /home/vance/anaconda3/envs/p4env/share/psi4/basis/def2-qzvp-ri.gbs 
    atoms 5-7, 9-10     entry C          line   269 file /home/vance/anaconda3/envs/p4env/share/psi4/basis/def2-qzvp-ri.gbs 
    atoms 8             entry N          line   337 file /home/vance/anaconda3/envs/p4env/share/psi4/basis/def2-qzvp-ri.gbs 



  ==> E20 Dispersion (CHF FDDS) <== 

   Legendre Points:          10
   Lambda Shift:          0.300
   Fxc Kernal:             ALDA
   (P|Fxc|Q) Thresh:  1.000e-06
  DFHelper Memory: AOs need 3.152 GiB; user supplied 5.960 GiB. 
  Using in-core AOs.

  ==> DFHelper <==
    NBF:                             592
    NAux:                           1349
    Schwarz Cutoff:                1E-12
    Mask sparsity (%):                14
    DFH Avail. Memory [GiB]:       5.960
    OpenMP threads:                    4
    Algorithm:                    DIRECT
    AO Core:                        True
    MO Core:                       False
    Hold Metric:                   False
    Metric Power:                  0.000
    Fitting Condition:             1E-12
    Q Shell Max:                      11


  DFHelper Memory: AOs need 3.633 GiB; user supplied 5.960 GiB. 
  Using in-core AOs.

