
    -----------------------------------------------------------------------
          Psi4: An Open-Source Ab Initio Electronic Structure Package
                               Psi4 1.9.1 release

                         Git: Rev {} zzzzzzz 


    D. G. A. Smith, L. A. Burns, A. C. Simmonett, R. M. Parrish,
    M. C. Schieber, R. Galvelis, P. Kraus, H. Kruse, R. Di Remigio,
    A. Alenaizan, A. M. James, S. Lehtola, J. P. Misiewicz, M. Scheurer,
    R. A. Shaw, J. B. Schriber, Y. Xie, Z. L. Glick, D. A. Sirianni,
    J. S. O'Brien, J. M. Waldrop, A. Kumar, E. G. Hohenstein,
    B. P. Pritchard, B. R. Brooks, H. F. Schaefer III, A. Yu. Sokolov,
    K. Patkowski, A. E. DePrince III, U. Bozkaya, R. A. King,
    F. A. Evangelista, J. M. Turney, T. D. Crawford, C. D. Sherrill,
    J. Chem. Phys. 152(18) 184108 (2020). https://doi.org/10.1063/5.0006002

                            Additional Code Authors
    E. T. Seidl, C. L. Janssen, E. F. Valeev, M. L. Leininger,
    J. F. Gonthier, R. M. Richard, H. R. McAlexander, M. Saitow, X. Wang,
    P. Verma, M. H. Lechner, A. Jiang, S. Behnle, A. G. Heide,
    M. F. Herbst, and D. L. Poole

             Previous Authors, Complete List of Code Contributors,
                       and Citations for Specific Modules
    https://github.com/psi4/psi4/blob/master/codemeta.json
    https://github.com/psi4/psi4/graphs/contributors
    http://psicode.org/psi4manual/master/introduction.html#citing-psifour

    -----------------------------------------------------------------------


    Psi4 started on: Wednesday, 18 September 2024 07:13PM

    Process ID: 601395
    Host:       cmpsrv002
    PSIDATADIR: /home/vance/anaconda3/envs/p4env/share/psi4
    Memory:     500.0 MiB
    Threads:    4
    
  ==> Input File <==

--------------------------------------------------------------------------
#charge=0 charge_a=0 charge_b=0 selection_a=1-2 selection_b=3-13 scaling=2.0 benchmark_Eint=-2.864 benchmark_unit=kcal/mol group=XH-N
set_num_threads(4)
memory 8 GB
basis this_basis {
    assign    aug-cc-pVQZ
}

molecule {
     0 1
    --
     0 1
     H        0.00000        0.00000        1.62588
    Cl        0.00000        0.00000        2.99334
    --
     0 1
     H        0.00000       -2.14771       -4.15426
     H        0.00000       -2.05142       -1.66073
     C        0.00000        0.00000       -4.34806
     C        0.00000       -1.19640       -3.64394
     C        0.00000       -1.14931       -2.25801
     N        0.00000        0.00000       -1.58501
     C        0.00000        1.14931       -2.25801
     C        0.00000        1.19640       -3.64394
     H        0.00000        2.05142       -1.66073
     H        0.00000        2.14771       -4.15426
     H        0.00000        0.00000       -5.42863
}

set {
    sapt_dft_functional     PBE0
    scf_type                DF
    freeze_core             true
    sapt_dft_grac_shift_a    0.116251
    sapt_dft_grac_shift_b    0.074627
    sapt_dft_do_hybrid      true
    do_ind_exch_sinf        true
    do_disp_exch_sinf       true
}

nrg = energy('sapt(DFT)')
--------------------------------------------------------------------------
  Threads set to 4 by Python driver.

  Memory set to   7.451 GiB by Python driver.

Scratch directory: /scratch2/vance/psi4/

*** tstart() called on cmpsrv002
*** at Wed Sep 18 19:13:48 2024

  SAPT does not make use of molecular symmetry, further calculations in C1 point group.

         ---------------------------------------------------------
                            SAPT(DFT) Procedure                    

                           by Daniel G. A. Smith                   
         ---------------------------------------------------------

Warning! The default value of SAPT_DFT_EXCH_DISP_SCALE_SCHEME has changed from DISP to FIXED. Please be careful comparing results with earlier versions. 

  ==> Algorithm <==

   SAPT DFT Functional             PBE0
   Monomer A GRAC Shift        0.116251
   Monomer B GRAC Shift        0.074627
   Delta HF                        True
   JK Algorithm                      DF

   Required computations:
     HF  (Dimer)
     HF  (Monomer A)
     HF  (Monomer B)
     DFT (Monomer A)
     DFT (Monomer B)

   => Libint2 <=

    Primary   basis highest AM E, G, H:  6, 6, 3
    Auxiliary basis highest AM E, G, H:  7, 7, 4
    Onebody   basis highest AM E, G, H:  -, -, -
    Solid Harmonics ordering:            Gaussian

*** tstart() called on cmpsrv002
*** at Wed Sep 18 19:13:48 2024

   => Loading Basis Set <=

    Name: THIS_BASIS
    Role: ORBITAL
    Keyword: BASIS
    atoms 1, 3-4, 11-13 entry H          line    40 file /home/vance/anaconda3/envs/p4env/share/psi4/basis/aug-cc-pvqz.gbs 
    atoms 2             entry CL         line  1222 file /home/vance/anaconda3/envs/p4env/share/psi4/basis/aug-cc-pvqz.gbs 
    atoms 5-7, 9-10     entry C          line   303 file /home/vance/anaconda3/envs/p4env/share/psi4/basis/aug-cc-pvqz.gbs 
    atoms 8             entry N          line   363 file /home/vance/anaconda3/envs/p4env/share/psi4/basis/aug-cc-pvqz.gbs 


         ---------------------------------------------------------
                         SAPT(DFT): delta HF Dimer                 
         ---------------------------------------------------------
                                   SCF
               by Justin Turney, Rob Parrish, Andy Simmonett
                          and Daniel G. A. Smith
                              RHF Reference
                        4 Threads,   7629 MiB Core
         ---------------------------------------------------------

  ==> Geometry <==

    Molecular point group: c1
    Full point group: C2v

    Geometry (in Angstrom), charge = 0, multiplicity = 1:

       Center              X                  Y                   Z               Mass       
    ------------   -----------------  -----------------  -----------------  -----------------
         H            0.000000000000     0.000000000000     2.729162886190     1.007825032230
         CL           0.000000000000     0.000000000000     4.096622886190    34.968852682000
         H            0.000000000000    -2.147710000000    -3.050977113810     1.007825032230
         H            0.000000000000    -2.051420000000    -0.557447113810     1.007825032230
         C            0.000000000000     0.000000000000    -3.244777113810    12.000000000000
         C            0.000000000000    -1.196400000000    -2.540657113810    12.000000000000
         C            0.000000000000    -1.149310000000    -1.154727113810    12.000000000000
         N            0.000000000000     0.000000000000    -0.481727113810    14.003074004430
         C           -0.000000000000     1.149310000000    -1.154727113810    12.000000000000
         C           -0.000000000000     1.196400000000    -2.540657113810    12.000000000000
         H           -0.000000000000     2.051420000000    -0.557447113810     1.007825032230
         H           -0.000000000000     2.147710000000    -3.050977113810     1.007825032230
         H            0.000000000000     0.000000000000    -4.325347113810     1.007825032230

  Running in c1 symmetry.

  Rotational constants: A =      0.20108  B =      0.01776  C =      0.01632 [cm^-1]
  Rotational constants: A =   6028.26605  B =    532.47027  C =    489.25491 [MHz]
  Nuclear repulsion =  282.720611017753811

  Charge       = 0
  Multiplicity = 1
  Electrons    = 60
  Nalpha       = 30
  Nbeta        = 30

  ==> Algorithm <==

  SCF Algorithm Type is DF.
  DIIS enabled.
  MOM disabled.
  Fractional occupation disabled.
  Guess Type is SAD.
  Energy threshold   = 1.00e-08
  Density threshold  = 1.00e-08
  Integral threshold = 1.00e-12

  ==> Primary Basis <==

  Basis Set: THIS_BASIS
    Blend: AUG-CC-PVQZ
    Number of shells: 226
    Number of basis functions: 840
    Number of Cartesian functions: 1069
    Spherical Harmonics?: true
    Max angular momentum: 4

   => Loading Basis Set <=

    Name: (THIS_BASIS AUX)
    Role: JKFIT
    Keyword: DF_BASIS_SCF
    atoms 1, 3-4, 11-13 entry H          line    70 file /home/vance/anaconda3/envs/p4env/share/psi4/basis/aug-cc-pvqz-jkfit.gbs 
    atoms 2             entry CL         line   904 file /home/vance/anaconda3/envs/p4env/share/psi4/basis/aug-cc-pvqz-jkfit.gbs 
    atoms 5-7, 9-10     entry C          line   178 file /home/vance/anaconda3/envs/p4env/share/psi4/basis/aug-cc-pvqz-jkfit.gbs 
    atoms 8             entry N          line   248 file /home/vance/anaconda3/envs/p4env/share/psi4/basis/aug-cc-pvqz-jkfit.gbs 

  ==> Integral Setup <==

  ==> DiskDFJK: Density-Fitted J/K Matrices <==

    J tasked:                  Yes
    K tasked:                  Yes
    wK tasked:                  No
    OpenMP threads:              4
    Integrals threads:           4
    Memory [MiB]:             5722
    Algorithm:                Core
    Integral Cache:           SAVE
    Schwarz Cutoff:          1E-12
    Fitting Condition:       1E-10

   => Auxiliary Basis Set <=

  Basis Set: (THIS_BASIS AUX)
    Blend: AUG-CC-PVQZ-JKFIT
    Number of shells: 358
    Number of basis functions: 1492
    Number of Cartesian functions: 2041
    Spherical Harmonics?: true
    Max angular momentum: 5

  Minimum eigenvalue in the overlap matrix is 6.1504121040E-07.
  Reciprocal condition number of the overlap matrix is 3.4627429060E-08.
    Using symmetric orthogonalization.

  ==> Pre-Iterations <==

  SCF Guess: Superposition of Atomic Densities via on-the-fly atomic UHF (no occupation information).

   -------------------------
    Irrep   Nso     Nmo    
   -------------------------
     A        840     840 
   -------------------------
    Total     840     840
   -------------------------

  ==> Iterations <==

                           Total Energy        Delta E     RMS |[F,P]|

   @DF-RHF iter SAD:  -706.08791447499857   -7.06088e+02   0.00000e+00 
   @DF-RHF iter   1:  -706.73370019589254   -6.45786e-01   6.36923e-04 DIIS/ADIIS
   @DF-RHF iter   2:  -706.87364972528769   -1.39950e-01   2.92173e-04 DIIS/ADIIS
   @DF-RHF iter   3:  -706.90137515727406   -2.77254e-02   5.60732e-05 DIIS
   @DF-RHF iter   4:  -706.90309726812438   -1.72211e-03   1.66576e-05 DIIS
   @DF-RHF iter   5:  -706.90321457030780   -1.17302e-04   5.86474e-06 DIIS
   @DF-RHF iter   6:  -706.90323256047816   -1.79902e-05   1.97936e-06 DIIS
   @DF-RHF iter   7:  -706.90323519930996   -2.63883e-06   5.95864e-07 DIIS
   @DF-RHF iter   8:  -706.90323551774702   -3.18437e-07   2.14504e-07 DIIS
   @DF-RHF iter   9:  -706.90323555704731   -3.93003e-08   7.33220e-08 DIIS
   @DF-RHF iter  10:  -706.90323556324051   -6.19320e-09   3.35370e-08 DIIS
   @DF-RHF iter  11:  -706.90323556546946   -2.22894e-09   1.43822e-08 DIIS
   @DF-RHF iter  12:  -706.90323556588714   -4.17685e-10   3.00405e-09 DIIS
  Energy and wave function converged.


  ==> Post-Iterations <==

    Orbital Energies [Eh]
    ---------------------

    Doubly Occupied:                                                      

       1A   -104.837922     2A    -15.570765     3A    -11.280577  
       4A    -11.280559     5A    -11.264517     6A    -11.246952  
       7A    -11.246897     8A    -10.561693     9A     -8.028773  
      10A     -8.027184    11A     -8.027182    12A     -1.268790  
      13A     -1.096533    14A     -1.087220    15A     -1.044939  
      16A     -0.866662    17A     -0.866107    18A     -0.731650  
      19A     -0.670835    20A     -0.661566    21A     -0.610044  
      22A     -0.591195    23A     -0.583094    24A     -0.552362  
      25A     -0.530760    26A     -0.461113    27A     -0.461001  
      28A     -0.424612    29A     -0.391992    30A     -0.357135  

    Virtual:                                                              

      31A      0.020445    32A      0.026801    33A      0.030773  
      34A      0.042546    35A      0.044174    36A      0.059076  
      37A      0.061782    38A      0.077914    39A      0.084332  
      40A      0.084544    41A      0.088183    42A      0.091094  
      43A      0.092343    44A      0.094830    45A      0.096062  
      46A      0.101153    47A      0.109810    48A      0.111978  
      49A      0.119588    50A      0.119750    51A      0.121704  
      52A      0.124575    53A      0.129047    54A      0.130103  
      55A      0.132423    56A      0.147074    57A      0.148525  
      58A      0.156308    59A      0.178968    60A      0.196795  
      61A      0.196996    62A      0.207262    63A      0.209717  
      64A      0.211130    65A      0.216159    66A      0.232797  
      67A      0.233460    68A      0.243021    69A      0.244355  
      70A      0.244373    71A      0.247052    72A      0.249750  
      73A      0.254112    74A      0.256615    75A      0.268246  
      76A      0.271216    77A      0.274480    78A      0.281452  
      79A      0.281562    80A      0.290591    81A      0.292583  
      82A      0.295137    83A      0.303830    84A      0.305590  
      85A      0.312287    86A      0.314470    87A      0.316527  
      88A      0.323820    89A      0.330725    90A      0.337099  
      91A      0.347693    92A      0.348785    93A      0.357922  
      94A      0.359528    95A      0.365734    96A      0.366531  
      97A      0.384664    98A      0.385278    99A      0.396805  
     100A      0.397974   101A      0.399696   102A      0.405617  
     103A      0.412667   104A      0.420339   105A      0.424840  
     106A      0.426547   107A      0.431284   108A      0.432277  
     109A      0.434532   110A      0.436740   111A      0.452074  
     112A      0.453369   113A      0.455284   114A      0.464045  
     115A      0.467173   116A      0.469548   117A      0.486612  
     118A      0.494557   119A      0.502342   120A      0.506904  
     121A      0.508876   122A      0.509386   123A      0.511974  
     124A      0.512722   125A      0.530760   126A      0.534225  
     127A      0.546398   128A      0.563396   129A      0.565429  
     130A      0.566900   131A      0.581860   132A      0.582659  
     133A      0.585717   134A      0.594776   135A      0.601730  
     136A      0.615034   137A      0.618777   138A      0.631394  
     139A      0.633197   140A      0.644187   141A      0.644939  
     142A      0.650030   143A      0.657628   144A      0.662755  
     145A      0.670807   146A      0.671210   147A      0.675268  
     148A      0.679318   149A      0.681008   150A      0.699741  
     151A      0.709550   152A      0.714208   153A      0.720507  
     154A      0.721031   155A      0.731225   156A      0.732226  
     157A      0.735514   158A      0.741203   159A      0.744155  
     160A      0.744425   161A      0.748216   162A      0.758720  
     163A      0.775114   164A      0.777639   165A      0.779807  
     166A      0.780458   167A      0.786032   168A      0.790175  
     169A      0.792025   170A      0.794074   171A      0.801777  
     172A      0.818343   173A      0.821515   174A      0.829047  
     175A      0.833127   176A      0.834282   177A      0.837378  
     178A      0.843648   179A      0.852998   180A      0.854432  
     181A      0.855675   182A      0.856112   183A      0.882169  
     184A      0.894604   185A      0.901922   186A      0.902938  
     187A      0.903424   188A      0.921298   189A      0.923395  
     190A      0.933549   191A      0.940880   192A      0.946399  
     193A      0.958000   194A      0.958276   195A      0.962054  
     196A      0.975990   197A      0.976579   198A      0.981277  
     199A      0.991700   200A      0.995959   201A      0.998823  
     202A      0.999365   203A      1.017426   204A      1.032919  
     205A      1.037419   206A      1.047451   207A      1.055546  
     208A      1.057365   209A      1.063176   210A      1.080586  
     211A      1.085244   212A      1.087528   213A      1.101213  
     214A      1.117360   215A      1.133366   216A      1.137558  
     217A      1.140442   218A      1.142628   219A      1.161363  
     220A      1.168700   221A      1.176450   222A      1.180243  
     223A      1.183190   224A      1.194886   225A      1.202741  
     226A      1.214219   227A      1.220513   228A      1.242485  
     229A      1.244282   230A      1.256691   231A      1.269557  
     232A      1.287101   233A      1.296397   234A      1.300028  
     235A      1.306289   236A      1.319163   237A      1.320521  
     238A      1.330454   239A      1.341265   240A      1.347171  
     241A      1.371499   242A      1.375346   243A      1.379173  
     244A      1.390293   245A      1.392831   246A      1.399723  
     247A      1.404641   248A      1.405870   249A      1.419925  
     250A      1.428116   251A      1.429311   252A      1.434406  
     253A      1.453869   254A      1.459372   255A      1.459458  
     256A      1.514332   257A      1.518565   258A      1.522504  
     259A      1.541349   260A      1.545326   261A      1.552633  
     262A      1.561604   263A      1.565142   264A      1.570902  
     265A      1.578444   266A      1.578562   267A      1.579463  
     268A      1.583605   269A      1.601854   270A      1.613867  
     271A      1.620075   272A      1.621613   273A      1.629038  
     274A      1.630569   275A      1.639314   276A      1.658973  
     277A      1.659850   278A      1.663150   279A      1.681028  
     280A      1.702280   281A      1.704675   282A      1.713814  
     283A      1.718185   284A      1.736674   285A      1.744320  
     286A      1.748336   287A      1.773412   288A      1.773564  
     289A      1.786749   290A      1.792396   291A      1.797814  
     292A      1.807311   293A      1.817900   294A      1.828024  
     295A      1.829804   296A      1.835201   297A      1.845217  
     298A      1.856154   299A      1.865646   300A      1.867869  
     301A      1.882124   302A      1.882379   303A      1.903616  
     304A      1.905355   305A      1.914918   306A      1.920655  
     307A      1.929081   308A      1.944404   309A      1.949435  
     310A      1.951427   311A      1.964415   312A      1.964443  
     313A      1.972161   314A      1.973260   315A      1.974942  
     316A      1.981224   317A      1.991696   318A      1.992563  
     319A      2.002196   320A      2.005161   321A      2.005937  
     322A      2.016838   323A      2.022482   324A      2.033713  
     325A      2.042322   326A      2.047996   327A      2.048415  
     328A      2.057866   329A      2.063567   330A      2.073110  
     331A      2.079159   332A      2.079159   333A      2.086649  
     334A      2.089222   335A      2.089357   336A      2.096835  
     337A      2.105624   338A      2.115408   339A      2.121377  
     340A      2.122986   341A      2.134660   342A      2.149496  
     343A      2.157374   344A      2.163671   345A      2.190961  
     346A      2.192235   347A      2.201760   348A      2.202419  
     349A      2.225399   350A      2.231629   351A      2.236484  
     352A      2.250239   353A      2.250693   354A      2.251189  
     355A      2.270034   356A      2.274177   357A      2.274614  
     358A      2.287511   359A      2.302133   360A      2.302411  
     361A      2.310270   362A      2.314878   363A      2.325924  
     364A      2.345260   365A      2.352652   366A      2.360505  
     367A      2.362866   368A      2.366307   369A      2.377605  
     370A      2.377707   371A      2.380842   372A      2.393158  
     373A      2.406994   374A      2.414085   375A      2.419335  
     376A      2.422115   377A      2.453294   378A      2.475182  
     379A      2.475765   380A      2.477423   381A      2.481792  
     382A      2.488603   383A      2.504029   384A      2.507889  
     385A      2.511300   386A      2.511430   387A      2.539269  
     388A      2.543567   389A      2.552921   390A      2.566948  
     391A      2.574967   392A      2.576638   393A      2.577809  
     394A      2.579422   395A      2.592445   396A      2.612728  
     397A      2.619350   398A      2.624793   399A      2.639620  
     400A      2.666904   401A      2.699405   402A      2.704110  
     403A      2.716963   404A      2.719539   405A      2.750686  
     406A      2.760453   407A      2.760712   408A      2.769575  
     409A      2.774110   410A      2.784285   411A      2.786403  
     412A      2.802441   413A      2.808026   414A      2.825260  
     415A      2.835964   416A      2.861291   417A      2.875347  
     418A      2.879899   419A      2.913806   420A      2.919538  
     421A      2.921412   422A      2.948697   423A      2.987351  
     424A      2.996697   425A      3.011643   426A      3.012141  
     427A      3.016568   428A      3.018304   429A      3.044047  
     430A      3.066471   431A      3.067891   432A      3.072651  
     433A      3.083747   434A      3.100400   435A      3.105458  
     436A      3.121287   437A      3.126563   438A      3.128025  
     439A      3.140401   440A      3.148916   441A      3.163873  
     442A      3.190194   443A      3.198617   444A      3.232707  
     445A      3.245739   446A      3.260242   447A      3.276454  
     448A      3.284367   449A      3.294654   450A      3.307000  
     451A      3.308284   452A      3.320726   453A      3.337039  
     454A      3.360351   455A      3.370814   456A      3.381333  
     457A      3.392050   458A      3.393464   459A      3.421528  
     460A      3.463915   461A      3.466316   462A      3.469760  
     463A      3.539350   464A      3.541836   465A      3.552989  
     466A      3.557277   467A      3.576518   468A      3.603966  
     469A      3.607798   470A      3.643330   471A      3.651392  
     472A      3.672660   473A      3.675878   474A      3.693564  
     475A      3.715797   476A      3.737879   477A      3.738095  
     478A      3.748095   479A      3.759402   480A      3.768714  
     481A      3.790300   482A      3.797554   483A      3.807787  
     484A      3.815778   485A      3.831486   486A      3.882252  
     487A      3.884978   488A      3.896505   489A      3.916746  
     490A      3.919489   491A      3.924994   492A      3.928468  
     493A      3.951362   494A      3.970560   495A      3.990320  
     496A      3.994103   497A      4.007771   498A      4.038880  
     499A      4.047312   500A      4.047703   501A      4.049005  
     502A      4.090545   503A      4.116671   504A      4.133393  
     505A      4.152438   506A      4.162710   507A      4.163857  
     508A      4.188434   509A      4.208473   510A      4.256090  
     511A      4.263248   512A      4.271532   513A      4.325603  
     514A      4.328741   515A      4.333358   516A      4.337607  
     517A      4.352060   518A      4.373486   519A      4.383482  
     520A      4.391891   521A      4.401368   522A      4.401774  
     523A      4.428762   524A      4.438784   525A      4.468502  
     526A      4.475814   527A      4.500911   528A      4.502947  
     529A      4.503571   530A      4.508773   531A      4.525966  
     532A      4.560849   533A      4.561188   534A      4.582580  
     535A      4.617066   536A      4.618048   537A      4.626648  
     538A      4.675488   539A      4.683938   540A      4.691551  
     541A      4.697192   542A      4.704703   543A      4.717817  
     544A      4.719332   545A      4.725526   546A      4.732412  
     547A      4.735607   548A      4.735730   549A      4.751251  
     550A      4.752625   551A      4.753036   552A      4.757791  
     553A      4.792888   554A      4.802335   555A      4.832160  
     556A      4.861253   557A      4.871006   558A      4.891620  
     559A      4.909528   560A      4.917915   561A      4.924524  
     562A      4.937437   563A      4.980070   564A      5.000974  
     565A      5.024171   566A      5.032854   567A      5.051745  
     568A      5.073916   569A      5.144026   570A      5.158983  
     571A      5.165621   572A      5.208210   573A      5.218423  
     574A      5.251875   575A      5.323627   576A      5.338260  
     577A      5.375166   578A      5.408374   579A      5.422424  
     580A      5.440129   581A      5.477677   582A      5.492156  
     583A      5.528104   584A      5.545548   585A      5.633719  
     586A      5.712210   587A      5.770189   588A      5.808383  
     589A      5.831732   590A      5.841306   591A      5.842877  
     592A      5.884216   593A      5.918496   594A      5.984067  
     595A      6.004460   596A      6.039473   597A      6.076574  
     598A      6.094477   599A      6.108887   600A      6.118451  
     601A      6.131644   602A      6.151695   603A      6.164725  
     604A      6.196587   605A      6.208190   606A      6.277496  
     607A      6.313002   608A      6.314456   609A      6.329701  
     610A      6.378668   611A      6.378883   612A      6.427429  
     613A      6.443974   614A      6.451016   615A      6.467107  
     616A      6.477609   617A      6.530065   618A      6.543560  
     619A      6.575748   620A      6.576067   621A      6.589670  
     622A      6.594421   623A      6.598627   624A      6.601001  
     625A      6.615596   626A      6.641016   627A      6.651882  
     628A      6.652276   629A      6.655000   630A      6.665899  
     631A      6.698990   632A      6.726203   633A      6.748195  
     634A      6.788972   635A      6.793792   636A      6.802103  
     637A      6.838863   638A      6.851705   639A      6.875718  
     640A      6.885851   641A      6.910753   642A      6.915509  
     643A      6.936606   644A      6.954455   645A      6.964779  
     646A      6.971185   647A      6.986891   648A      6.997856  
     649A      7.015869   650A      7.036298   651A      7.046935  
     652A      7.053447   653A      7.075908   654A      7.089802  
     655A      7.095155   656A      7.116302   657A      7.129296  
     658A      7.159333   659A      7.161542   660A      7.166862  
     661A      7.193172   662A      7.212948   663A      7.221063  
     664A      7.230589   665A      7.249146   666A      7.304734  
     667A      7.309583   668A      7.324759   669A      7.329681  
     670A      7.355759   671A      7.396865   672A      7.397807  
     673A      7.402991   674A      7.417605   675A      7.475401  
     676A      7.477067   677A      7.510945   678A      7.544857  
     679A      7.545878   680A      7.562154   681A      7.574484  
     682A      7.586435   683A      7.592772   684A      7.637503  
     685A      7.645028   686A      7.666530   687A      7.699352  
     688A      7.751528   689A      7.761007   690A      7.782882  
     691A      7.788451   692A      7.803706   693A      7.812723  
     694A      7.850211   695A      7.860092   696A      7.879306  
     697A      7.927252   698A      7.937340   699A      8.010209  
     700A      8.027049   701A      8.030038   702A      8.058832  
     703A      8.065862   704A      8.090897   705A      8.103879  
     706A      8.151746   707A      8.161064   708A      8.179819  
     709A      8.195443   710A      8.273237   711A      8.287597  
     712A      8.331868   713A      8.334811   714A      8.365279  
     715A      8.385457   716A      8.397510   717A      8.464560  
     718A      8.515512   719A      8.529550   720A      8.572915  
     721A      8.605030   722A      8.611695   723A      8.615842  
     724A      8.634364   725A      8.636101   726A      8.639102  
     727A      8.649349   728A      8.664738   729A      8.697356  
     730A      8.714607   731A      8.719195   732A      8.734777  
     733A      8.817166   734A      8.817900   735A      8.865305  
     736A      8.888469   737A      8.901198   738A      8.931704  
     739A      8.949803   740A      8.952391   741A      8.957716  
     742A      8.969579   743A      8.975495   744A      9.041089  
     745A      9.061266   746A      9.085458   747A      9.143420  
     748A      9.152938   749A      9.181967   750A      9.199440  
     751A      9.227078   752A      9.232760   753A      9.256801  
     754A      9.331292   755A      9.361694   756A      9.379353  
     757A      9.392042   758A      9.396898   759A      9.411949  
     760A      9.431819   761A      9.457527   762A      9.514422  
     763A      9.546326   764A      9.550042   765A      9.560859  
     766A      9.593528   767A      9.600763   768A      9.603522  
     769A      9.674196   770A      9.721027   771A      9.735600  
     772A      9.751529   773A      9.766195   774A      9.816531  
     775A      9.855260   776A      9.875925   777A      9.932509  
     778A      9.959773   779A      9.959905   780A      9.984293  
     781A      9.993623   782A     10.012536   783A     10.020114  
     784A     10.038901   785A     10.092301   786A     10.232664  
     787A     10.234892   788A     10.246278   789A     10.255558  
     790A     10.326125   791A     10.331467   792A     10.341462  
     793A     10.386224   794A     10.408810   795A     10.504768  
     796A     10.507366   797A     10.507750   798A     10.515372  
     799A     10.523002   800A     10.590476   801A     10.648487  
     802A     10.699587   803A     10.728402   804A     10.770995  
     805A     10.786915   806A     10.791607   807A     10.804938  
     808A     10.864737   809A     10.902664   810A     10.918628  
     811A     11.064575   812A     11.136283   813A     11.213832  
     814A     11.226865   815A     11.393731   816A     11.418281  
     817A     11.459180   818A     11.495674   819A     11.567862  
     820A     11.638220   821A     11.685506   822A     11.712449  
     823A     11.821198   824A     11.943890   825A     12.356076  
     826A     12.532894   827A     12.763619   828A     12.925019  
     829A     13.229097   830A     13.373146   831A     13.398700  
     832A     13.566701   833A     13.619023   834A     26.059551  
     835A     26.232335   836A     26.356248   837A     26.597656  
     838A     26.989987   839A     27.295484   840A     34.299427  

    Final Occupation by Irrep:
              A 
    DOCC [    30 ]
    NA   [    30 ]
    NB   [    30 ]

  @DF-RHF Final Energy:  -706.90323556588714

   => Energetics <=

    Nuclear Repulsion Energy =            282.7206110177538108
    One-Electron Energy =               -1529.9864292170564113
    Two-Electron Energy =                 540.3625826334155136
    Total Energy =                       -706.9032355658871438

Computation Completed


Properties will be evaluated at   0.000000,   0.000000,   0.000000 [a0]

Properties computed using the SCF density matrix


 Multipole Moments:

 ------------------------------------------------------------------------------------
     Multipole            Electronic (a.u.)      Nuclear  (a.u.)        Total (a.u.)
 ------------------------------------------------------------------------------------

 L = 1.  Multiply by 2.5417464519 to convert [e a0] to [Debye]
 Dipole X            :         -0.0000000           -0.0000000           -0.0000000
 Dipole Y            :         -0.0000000           -0.0000000           -0.0000000
 Dipole Z            :         10.4205100          -12.0107342           -1.5902242
 Magnitude           :                                                    1.5902242

 ------------------------------------------------------------------------------------

*** tstop() called on cmpsrv002 at Wed Sep 18 19:21:18 2024
Module time:
	user time   =     680.33 seconds =      11.34 minutes
	system time =      34.76 seconds =       0.58 minutes
	total time  =        450 seconds =       7.50 minutes
Total time:
	user time   =     680.33 seconds =      11.34 minutes
	system time =      34.76 seconds =       0.58 minutes
	total time  =        450 seconds =       7.50 minutes
   => Libint2 <=

    Primary   basis highest AM E, G, H:  6, 6, 3
    Auxiliary basis highest AM E, G, H:  7, 7, 4
    Onebody   basis highest AM E, G, H:  -, -, -
    Solid Harmonics ordering:            Gaussian

*** tstart() called on cmpsrv002
*** at Wed Sep 18 19:21:18 2024

   => Loading Basis Set <=

    Name: THIS_BASIS
    Role: ORBITAL
    Keyword: BASIS
    atoms 1, 3-4, 11-13 entry H          line    40 file /home/vance/anaconda3/envs/p4env/share/psi4/basis/aug-cc-pvqz.gbs 
    atoms 2             entry CL         line  1222 file /home/vance/anaconda3/envs/p4env/share/psi4/basis/aug-cc-pvqz.gbs 
    atoms 5-7, 9-10     entry C          line   303 file /home/vance/anaconda3/envs/p4env/share/psi4/basis/aug-cc-pvqz.gbs 
    atoms 8             entry N          line   363 file /home/vance/anaconda3/envs/p4env/share/psi4/basis/aug-cc-pvqz.gbs 


         ---------------------------------------------------------
                       SAPT(DFT): delta HF Monomer A               
         ---------------------------------------------------------
                                   SCF
               by Justin Turney, Rob Parrish, Andy Simmonett
                          and Daniel G. A. Smith
                              RHF Reference
                        4 Threads,   7629 MiB Core
         ---------------------------------------------------------

  ==> Geometry <==

    Molecular point group: c1
    Full point group: C2v

    Geometry (in Angstrom), charge = 0, multiplicity = 1:

       Center              X                  Y                   Z               Mass       
    ------------   -----------------  -----------------  -----------------  -----------------
         H            0.000000000000     0.000000000000     2.729162886190     1.007825032230
         CL           0.000000000000     0.000000000000     4.096622886190    34.968852682000
      Gh(H)           0.000000000000    -2.147710000000    -3.050977113810     1.007825032230
      Gh(H)           0.000000000000    -2.051420000000    -0.557447113810     1.007825032230
      Gh(C)           0.000000000000     0.000000000000    -3.244777113810    12.000000000000
      Gh(C)           0.000000000000    -1.196400000000    -2.540657113810    12.000000000000
      Gh(C)           0.000000000000    -1.149310000000    -1.154727113810    12.000000000000
      Gh(N)           0.000000000000     0.000000000000    -0.481727113810    14.003074004430
      Gh(C)          -0.000000000000     1.149310000000    -1.154727113810    12.000000000000
      Gh(C)          -0.000000000000     1.196400000000    -2.540657113810    12.000000000000
      Gh(H)          -0.000000000000     2.051420000000    -0.557447113810     1.007825032230
      Gh(H)          -0.000000000000     2.147710000000    -3.050977113810     1.007825032230
      Gh(H)           0.000000000000     0.000000000000    -4.325347113810     1.007825032230

  Running in c1 symmetry.

  Rotational constants: A =      0.20108  B =      0.01776  C =      0.01632 [cm^-1]
  Rotational constants: A =   6028.26605  B =    532.47027  C =    489.25491 [MHz]
  Nuclear repulsion =    6.578629416136488

  Charge       = 0
  Multiplicity = 1
  Electrons    = 18
  Nalpha       = 9
  Nbeta        = 9

  ==> Algorithm <==

  SCF Algorithm Type is DF.
  DIIS enabled.
  MOM disabled.
  Fractional occupation disabled.
  Guess Type is SAD.
  Energy threshold   = 1.00e-08
  Density threshold  = 1.00e-08
  Integral threshold = 1.00e-12

  ==> Primary Basis <==

  Basis Set: THIS_BASIS
    Blend: AUG-CC-PVQZ
    Number of shells: 226
    Number of basis functions: 840
    Number of Cartesian functions: 1069
    Spherical Harmonics?: true
    Max angular momentum: 4

   => Loading Basis Set <=

    Name: (THIS_BASIS AUX)
    Role: JKFIT
    Keyword: DF_BASIS_SCF
    atoms 1, 3-4, 11-13 entry H          line    70 file /home/vance/anaconda3/envs/p4env/share/psi4/basis/aug-cc-pvqz-jkfit.gbs 
    atoms 2             entry CL         line   904 file /home/vance/anaconda3/envs/p4env/share/psi4/basis/aug-cc-pvqz-jkfit.gbs 
    atoms 5-7, 9-10     entry C          line   178 file /home/vance/anaconda3/envs/p4env/share/psi4/basis/aug-cc-pvqz-jkfit.gbs 
    atoms 8             entry N          line   248 file /home/vance/anaconda3/envs/p4env/share/psi4/basis/aug-cc-pvqz-jkfit.gbs 

  ==> Integral Setup <==

  ==> DiskDFJK: Density-Fitted J/K Matrices <==

    J tasked:                  Yes
    K tasked:                  Yes
    wK tasked:                  No
    OpenMP threads:              4
    Integrals threads:           4
    Memory [MiB]:             5722
    Algorithm:                Core
    Integral Cache:           SAVE
    Schwarz Cutoff:          1E-12
    Fitting Condition:       1E-10

   => Auxiliary Basis Set <=

  Basis Set: (THIS_BASIS AUX)
    Blend: AUG-CC-PVQZ-JKFIT
    Number of shells: 358
    Number of basis functions: 1492
    Number of Cartesian functions: 2041
    Spherical Harmonics?: true
    Max angular momentum: 5

  Minimum eigenvalue in the overlap matrix is 6.1504121040E-07.
  Reciprocal condition number of the overlap matrix is 3.4627429060E-08.
    Using symmetric orthogonalization.

  ==> Pre-Iterations <==

  SCF Guess: Superposition of Atomic Densities via on-the-fly atomic UHF (no occupation information).

   -------------------------
    Irrep   Nso     Nmo    
   -------------------------
     A        840     840 
   -------------------------
    Total     840     840
   -------------------------

  ==> Iterations <==

                           Total Energy        Delta E     RMS |[F,P]|

   @DF-RHF iter SAD:  -459.85524087560520   -4.59855e+02   0.00000e+00 
   @DF-RHF iter   1:  -460.08187894306332   -2.26638e-01   2.28002e-04 DIIS/ADIIS
   @DF-RHF iter   2:  -460.10245996540863   -2.05810e-02   9.79922e-05 DIIS
   @DF-RHF iter   3:  -460.10539334444286   -2.93338e-03   1.82164e-05 DIIS
   @DF-RHF iter   4:  -460.10574820051522   -3.54856e-04   5.24354e-06 DIIS
   @DF-RHF iter   5:  -460.10578284878261   -3.46483e-05   7.45019e-07 DIIS
   @DF-RHF iter   6:  -460.10578346244301   -6.13660e-07   1.52928e-07 DIIS
   @DF-RHF iter   7:  -460.10578347643661   -1.39936e-08   3.54447e-08 DIIS
   @DF-RHF iter   8:  -460.10578347753227   -1.09566e-09   7.17252e-09 DIIS
  Energy and wave function converged.


  ==> Post-Iterations <==

    Orbital Energies [Eh]
    ---------------------

    Doubly Occupied:                                                      

       1A   -104.853124     2A    -10.576690     3A     -8.043770  
       4A     -8.042104     5A     -8.042104     6A     -1.101496  
       7A     -0.605738     8A     -0.474794     9A     -0.474792  

    Virtual:                                                              

      10A      0.012597    11A      0.026557    12A      0.026660  
      13A      0.042865    14A      0.043984    15A      0.049205  
      16A      0.055773    17A      0.065265    18A      0.074841  
      19A      0.076801    20A      0.081125    21A      0.081413  
      22A      0.090420    23A      0.092983    24A      0.103333  
      25A      0.106056    26A      0.106871    27A      0.109671  
      28A      0.113470    29A      0.120322    30A      0.124669  
      31A      0.125555    32A      0.129017    33A      0.137028  
      34A      0.148957    35A      0.149942    36A      0.152081  
      37A      0.162411    38A      0.169766    39A      0.171044  
      40A      0.192928    41A      0.195876    42A      0.208777  
      43A      0.209591    44A      0.216515    45A      0.221153  
      46A      0.230433    47A      0.233122    48A      0.243315  
      49A      0.247231    50A      0.248573    51A      0.253273  
      52A      0.258130    53A      0.264283    54A      0.271828  
      55A      0.279678    56A      0.280564    57A      0.281589  
      58A      0.285566    59A      0.291351    60A      0.294905  
      61A      0.301153    62A      0.303248    63A      0.304935  
      64A      0.310976    65A      0.312507    66A      0.320960  
      67A      0.329841    68A      0.332464    69A      0.337560  
      70A      0.342485    71A      0.345193    72A      0.347242  
      73A      0.349052    74A      0.356476    75A      0.365505  
      76A      0.369191    77A      0.369385    78A      0.374549  
      79A      0.380802    80A      0.388911    81A      0.403040  
      82A      0.405450    83A      0.428117    84A      0.428347  
      85A      0.428371    86A      0.428968    87A      0.448161  
      88A      0.449778    89A      0.462273    90A      0.469106  
      91A      0.474933    92A      0.478466    93A      0.480712  
      94A      0.483394    95A      0.488809    96A      0.492266  
      97A      0.499623    98A      0.502266    99A      0.527319  
     100A      0.527743   101A      0.530410   102A      0.534426  
     103A      0.537716   104A      0.552425   105A      0.558510  
     106A      0.560059   107A      0.562274   108A      0.564156  
     109A      0.572882   110A      0.589423   111A      0.590413  
     112A      0.599329   113A      0.604023   114A      0.605058  
     115A      0.610909   116A      0.621254   117A      0.625653  
     118A      0.626557   119A      0.639594   120A      0.642620  
     121A      0.653071   122A      0.654033   123A      0.665259  
     124A      0.667074   125A      0.672050   126A      0.686831  
     127A      0.688914   128A      0.697287   129A      0.703320  
     130A      0.713530   131A      0.716139   132A      0.725119  
     133A      0.736907   134A      0.742158   135A      0.744929  
     136A      0.749029   137A      0.769730   138A      0.774893  
     139A      0.775384   140A      0.781010   141A      0.784858  
     142A      0.793589   143A      0.798176   144A      0.798960  
     145A      0.800874   146A      0.810322   147A      0.814085  
     148A      0.818129   149A      0.827045   150A      0.833695  
     151A      0.840149   152A      0.859159   153A      0.861595  
     154A      0.866700   155A      0.870279   156A      0.877240  
     157A      0.893428   158A      0.899718   159A      0.908088  
     160A      0.914675   161A      0.925542   162A      0.929010  
     163A      0.938708   164A      0.943137   165A      0.944253  
     166A      0.951803   167A      0.954396   168A      0.962747  
     169A      0.963805   170A      0.968053   171A      0.968114  
     172A      0.984633   173A      0.989236   174A      0.998127  
     175A      1.000747   176A      1.017723   177A      1.020081  
     178A      1.028327   179A      1.041303   180A      1.045532  
     181A      1.051455   182A      1.057549   183A      1.061328  
     184A      1.063935   185A      1.076156   186A      1.076229  
     187A      1.087313   188A      1.093405   189A      1.093662  
     190A      1.097591   191A      1.100351   192A      1.119943  
     193A      1.121343   194A      1.141333   195A      1.148773  
     196A      1.154240   197A      1.172206   198A      1.174148  
     199A      1.175185   200A      1.214455   201A      1.220926  
     202A      1.224631   203A      1.238793   204A      1.244378  
     205A      1.259484   206A      1.271743   207A      1.273693  
     208A      1.277461   209A      1.286107   210A      1.293082  
     211A      1.299977   212A      1.319084   213A      1.324726  
     214A      1.350830   215A      1.351571   216A      1.372653  
     217A      1.377682   218A      1.380648   219A      1.399830  
     220A      1.407088   221A      1.413932   222A      1.438843  
     223A      1.439579   224A      1.448730   225A      1.468779  
     226A      1.476355   227A      1.486473   228A      1.496805  
     229A      1.508587   230A      1.534515   231A      1.536740  
     232A      1.548719   233A      1.549795   234A      1.557658  
     235A      1.561114   236A      1.568473   237A      1.569602  
     238A      1.580499   239A      1.595146   240A      1.597571  
     241A      1.597688   242A      1.597983   243A      1.613688  
     244A      1.624826   245A      1.626155   246A      1.636330  
     247A      1.642727   248A      1.648538   249A      1.651011  
     250A      1.679695   251A      1.698022   252A      1.710598  
     253A      1.712314   254A      1.717588   255A      1.723976  
     256A      1.726146   257A      1.736967   258A      1.750157  
     259A      1.753633   260A      1.757323   261A      1.771747  
     262A      1.775792   263A      1.778873   264A      1.781519  
     265A      1.795297   266A      1.797322   267A      1.809408  
     268A      1.817809   269A      1.821736   270A      1.823715  
     271A      1.838529   272A      1.847952   273A      1.849020  
     274A      1.856046   275A      1.863599   276A      1.865903  
     277A      1.869606   278A      1.870133   279A      1.870578  
     280A      1.876149   281A      1.894570   282A      1.918250  
     283A      1.934514   284A      1.937597   285A      1.939318  
     286A      1.943817   287A      1.953328   288A      1.957365  
     289A      1.963789   290A      1.972354   291A      1.979237  
     292A      1.985196   293A      2.005139   294A      2.005232  
     295A      2.007802   296A      2.008669   297A      2.023791  
     298A      2.024901   299A      2.025973   300A      2.043496  
     301A      2.057849   302A      2.060298   303A      2.060614  
     304A      2.064276   305A      2.066741   306A      2.070225  
     307A      2.078154   308A      2.084420   309A      2.101818  
     310A      2.105537   311A      2.110038   312A      2.114066  
     313A      2.127216   314A      2.130233   315A      2.138077  
     316A      2.140181   317A      2.167369   318A      2.175132  
     319A      2.175402   320A      2.183587   321A      2.199297  
     322A      2.211953   323A      2.219467   324A      2.221016  
     325A      2.228177   326A      2.236812   327A      2.263751  
     328A      2.275486   329A      2.283902   330A      2.293817  
     331A      2.296419   332A      2.306510   333A      2.320046  
     334A      2.320836   335A      2.332809   336A      2.339607  
     337A      2.343951   338A      2.358623   339A      2.366167  
     340A      2.370934   341A      2.373009   342A      2.416219  
     343A      2.422850   344A      2.440844   345A      2.442465  
     346A      2.450095   347A      2.454309   348A      2.486623  
     349A      2.491785   350A      2.501949   351A      2.529839  
     352A      2.541271   353A      2.544926   354A      2.546265  
     355A      2.556896   356A      2.562216   357A      2.568840  
     358A      2.587796   359A      2.609792   360A      2.616362  
     361A      2.627822   362A      2.633906   363A      2.644726  
     364A      2.667149   365A      2.670211   366A      2.696817  
     367A      2.708986   368A      2.715555   369A      2.742767  
     370A      2.753343   371A      2.755158   372A      2.765483  
     373A      2.769675   374A      2.776334   375A      2.788836  
     376A      2.814483   377A      2.815896   378A      2.815951  
     379A      2.840176   380A      2.868103   381A      2.875346  
     382A      2.876129   383A      2.886451   384A      2.906315  
     385A      2.909540   386A      2.930266   387A      2.932920  
     388A      2.945998   389A      2.959455   390A      2.972260  
     391A      2.985194   392A      3.015018   393A      3.020764  
     394A      3.023005   395A      3.026805   396A      3.052852  
     397A      3.058511   398A      3.066367   399A      3.076491  
     400A      3.089459   401A      3.093080   402A      3.100920  
     403A      3.121230   404A      3.124618   405A      3.127280  
     406A      3.143615   407A      3.143740   408A      3.156565  
     409A      3.172112   410A      3.183946   411A      3.208827  
     412A      3.213683   413A      3.267986   414A      3.275942  
     415A      3.276474   416A      3.284648   417A      3.286667  
     418A      3.304926   419A      3.306703   420A      3.314925  
     421A      3.315301   422A      3.326423   423A      3.328689  
     424A      3.330517   425A      3.365386   426A      3.402673  
     427A      3.422462   428A      3.425802   429A      3.428574  
     430A      3.440066   431A      3.446586   432A      3.471135  
     433A      3.507696   434A      3.513209   435A      3.528042  
     436A      3.536705   437A      3.542281   438A      3.589066  
     439A      3.612932   440A      3.621694   441A      3.628975  
     442A      3.672485   443A      3.679064   444A      3.682953  
     445A      3.685505   446A      3.687552   447A      3.697998  
     448A      3.719958   449A      3.736774   450A      3.739456  
     451A      3.770012   452A      3.775175   453A      3.778079  
     454A      3.800795   455A      3.821907   456A      3.858107  
     457A      3.887850   458A      3.888550   459A      3.908523  
     460A      3.908552   461A      3.920750   462A      3.924379  
     463A      3.941519   464A      3.947100   465A      3.947790  
     466A      3.950726   467A      3.991397   468A      4.017685  
     469A      4.047780   470A      4.055872   471A      4.093747  
     472A      4.095096   473A      4.113820   474A      4.150287  
     475A      4.150997   476A      4.160510   477A      4.173759  
     478A      4.198821   479A      4.235686   480A      4.238908  
     481A      4.257472   482A      4.278258   483A      4.294137  
     484A      4.307430   485A      4.319037   486A      4.338982  
     487A      4.361722   488A      4.379515   489A      4.384718  
     490A      4.385970   491A      4.401963   492A      4.423346  
     493A      4.425198   494A      4.461866   495A      4.477335  
     496A      4.484128   497A      4.492594   498A      4.504573  
     499A      4.508228   500A      4.517872   501A      4.537915  
     502A      4.566953   503A      4.598143   504A      4.616748  
     505A      4.642825   506A      4.647771   507A      4.668287  
     508A      4.675559   509A      4.700557   510A      4.704427  
     511A      4.706064   512A      4.712920   513A      4.722414  
     514A      4.722532   515A      4.723468   516A      4.737605  
     517A      4.738399   518A      4.741319   519A      4.774399  
     520A      4.781339   521A      4.818921   522A      4.824708  
     523A      4.826500   524A      4.844608   525A      4.859164  
     526A      4.871222   527A      4.882803   528A      4.916153  
     529A      4.923157   530A      4.945659   531A      4.968623  
     532A      5.006809   533A      5.024434   534A      5.033288  
     535A      5.036366   536A      5.083046   537A      5.093878  
     538A      5.105614   539A      5.121812   540A      5.135161  
     541A      5.143797   542A      5.169040   543A      5.183465  
     544A      5.218505   545A      5.260589   546A      5.268168  
     547A      5.271072   548A      5.273425   549A      5.301523  
     550A      5.306466   551A      5.335580   552A      5.366559  
     553A      5.370435   554A      5.392335   555A      5.406689  
     556A      5.477869   557A      5.503722   558A      5.522294  
     559A      5.522544   560A      5.534676   561A      5.562353  
     562A      5.610177   563A      5.643967   564A      5.705147  
     565A      5.715491   566A      5.736588   567A      5.767881  
     568A      5.866678   569A      5.887459   570A      6.028844  
     571A      6.045117   572A      6.085009   573A      6.122939  
     574A      6.127182   575A      6.244222   576A      6.253879  
     577A      6.261766   578A      6.361964   579A      6.412116  
     580A      6.430895   581A      6.449232   582A      6.474078  
     583A      6.485089   584A      6.485798   585A      6.513275  
     586A      6.548295   587A      6.559384   588A      6.575924  
     589A      6.622806   590A      6.631375   591A      6.664912  
     592A      6.701091   593A      6.733947   594A      6.750533  
     595A      6.776177   596A      6.799279   597A      6.811298  
     598A      6.815229   599A      6.862852   600A      6.887237  
     601A      6.911929   602A      6.932551   603A      6.938598  
     604A      6.944498   605A      6.977884   606A      7.032164  
     607A      7.064940   608A      7.085439   609A      7.097550  
     610A      7.101866   611A      7.102249   612A      7.139029  
     613A      7.186768   614A      7.205627   615A      7.233444  
     616A      7.233482   617A      7.255591   618A      7.269193  
     619A      7.275371   620A      7.317002   621A      7.318510  
     622A      7.326437   623A      7.333896   624A      7.353079  
     625A      7.353250   626A      7.355863   627A      7.358385  
     628A      7.417195   629A      7.445937   630A      7.488097  
     631A      7.504279   632A      7.519997   633A      7.528821  
     634A      7.530537   635A      7.539635   636A      7.546905  
     637A      7.560055   638A      7.589078   639A      7.627170  
     640A      7.673327   641A      7.683646   642A      7.738935  
     643A      7.792932   644A      7.833347   645A      7.849753  
     646A      7.854015   647A      7.856144   648A      7.868357  
     649A      7.889588   650A      7.897210   651A      7.919326  
     652A      7.933900   653A      7.976490   654A      8.037793  
     655A      8.055186   656A      8.062289   657A      8.084894  
     658A      8.128284   659A      8.170710   660A      8.185160  
     661A      8.231091   662A      8.241179   663A      8.246705  
     664A      8.270082   665A      8.274600   666A      8.305583  
     667A      8.368118   668A      8.391463   669A      8.462133  
     670A      8.494510   671A      8.529903   672A      8.546904  
     673A      8.550322   674A      8.591414   675A      8.594889  
     676A      8.612819   677A      8.622203   678A      8.628937  
     679A      8.667081   680A      8.731533   681A      8.746389  
     682A      8.776384   683A      8.789707   684A      8.825133  
     685A      8.838383   686A      8.910360   687A      8.929974  
     688A      8.995708   689A      9.004334   690A      9.019995  
     691A      9.051693   692A      9.079571   693A      9.095356  
     694A      9.105440   695A      9.114038   696A      9.136464  
     697A      9.203446   698A      9.206763   699A      9.259245  
     700A      9.260205   701A      9.294258   702A      9.321464  
     703A      9.322487   704A      9.344028   705A      9.355494  
     706A      9.386567   707A      9.387004   708A      9.393747  
     709A      9.415091   710A      9.446512   711A      9.456746  
     712A      9.504879   713A      9.505227   714A      9.535160  
     715A      9.562171   716A      9.619405   717A      9.639052  
     718A      9.667513   719A      9.686505   720A      9.726597  
     721A      9.741718   722A      9.789846   723A      9.826135  
     724A      9.834618   725A      9.844161   726A      9.866473  
     727A      9.869194   728A      9.918557   729A      9.928520  
     730A      9.933581   731A      9.978947   732A      9.988855  
     733A     10.018621   734A     10.042291   735A     10.062989  
     736A     10.081573   737A     10.085181   738A     10.112254  
     739A     10.117564   740A     10.152568   741A     10.201740  
     742A     10.230329   743A     10.237759   744A     10.241774  
     745A     10.317647   746A     10.335235   747A     10.350290  
     748A     10.444773   749A     10.458874   750A     10.463704  
     751A     10.495951   752A     10.496781   753A     10.592857  
     754A     10.643354   755A     10.643657   756A     10.740080  
     757A     10.740676   758A     10.764992   759A     10.772685  
     760A     10.795843   761A     10.817513   762A     10.868631  
     763A     10.873979   764A     10.889951   765A     10.896449  
     766A     10.955850   767A     10.967768   768A     10.974835  
     769A     10.982742   770A     10.988269   771A     11.088190  
     772A     11.112958   773A     11.150744   774A     11.180201  
     775A     11.190668   776A     11.200231   777A     11.283251  
     778A     11.319972   779A     11.416749   780A     11.510418  
     781A     11.540313   782A     11.607734   783A     11.647361  
     784A     11.782471   785A     11.838600   786A     11.953270  
     787A     11.985073   788A     12.004960   789A     12.095164  
     790A     12.114952   791A     12.129220   792A     12.292623  
     793A     12.319367   794A     12.349216   795A     12.494798  
     796A     12.534004   797A     12.881081   798A     12.988109  
     799A     13.070521   800A     13.181234   801A     13.196572  
     802A     13.205963   803A     13.226323   804A     13.441421  
     805A     13.560012   806A     13.737222   807A     13.849354  
     808A     13.898599   809A     13.916721   810A     14.005100  
     811A     14.075657   812A     14.377757   813A     14.398549  
     814A     14.440045   815A     14.643312   816A     14.796356  
     817A     14.986616   818A     15.064302   819A     15.417278  
     820A     15.769582   821A     16.143600   822A     16.520038  
     823A     16.543649   824A     17.021151   825A     17.231662  
     826A     17.551781   827A     17.786187   828A     17.821804  
     829A     17.832320   830A     17.905754   831A     18.256270  
     832A     19.333094   833A     20.670790   834A     26.051544  
     835A     68.347370   836A     68.564002   837A     68.944677  
     838A     69.383444   839A     69.786248   840A     93.237061  

    Final Occupation by Irrep:
              A 
    DOCC [     9 ]
    NA   [     9 ]
    NB   [     9 ]

  @DF-RHF Final Energy:  -460.10578347753227

   => Energetics <=

    Nuclear Repulsion Energy =              6.5786294161364882
    One-Electron Energy =                -648.9395927538514570
    Two-Electron Energy =                 182.2551798601827500
    Total Energy =                       -460.1057834775322704

Computation Completed


Properties will be evaluated at   0.000000,   0.000000,   0.000000 [a0]

Properties computed using the SCF density matrix


 Multipole Moments:

 ------------------------------------------------------------------------------------
     Multipole            Electronic (a.u.)      Nuclear  (a.u.)        Total (a.u.)
 ------------------------------------------------------------------------------------

 L = 1.  Multiply by 2.5417464519 to convert [e a0] to [Debye]
 Dipole X            :         -0.0000000            0.0000000           -0.0000000
 Dipole Y            :         -0.0000000            0.0000000           -0.0000000
 Dipole Z            :       -137.2727848          136.7627904           -0.5099944
 Magnitude           :                                                    0.5099944

 ------------------------------------------------------------------------------------

*** tstop() called on cmpsrv002 at Wed Sep 18 19:25:20 2024
Module time:
	user time   =     481.36 seconds =       8.02 minutes
	system time =      24.54 seconds =       0.41 minutes
	total time  =        242 seconds =       4.03 minutes
Total time:
	user time   =    1161.69 seconds =      19.36 minutes
	system time =      59.30 seconds =       0.99 minutes
	total time  =        692 seconds =      11.53 minutes
   => Libint2 <=

    Primary   basis highest AM E, G, H:  6, 6, 3
    Auxiliary basis highest AM E, G, H:  7, 7, 4
    Onebody   basis highest AM E, G, H:  -, -, -
    Solid Harmonics ordering:            Gaussian

*** tstart() called on cmpsrv002
*** at Wed Sep 18 19:25:20 2024

   => Loading Basis Set <=

    Name: THIS_BASIS
    Role: ORBITAL
    Keyword: BASIS
    atoms 1, 3-4, 11-13 entry H          line    40 file /home/vance/anaconda3/envs/p4env/share/psi4/basis/aug-cc-pvqz.gbs 
    atoms 2             entry CL         line  1222 file /home/vance/anaconda3/envs/p4env/share/psi4/basis/aug-cc-pvqz.gbs 
    atoms 5-7, 9-10     entry C          line   303 file /home/vance/anaconda3/envs/p4env/share/psi4/basis/aug-cc-pvqz.gbs 
    atoms 8             entry N          line   363 file /home/vance/anaconda3/envs/p4env/share/psi4/basis/aug-cc-pvqz.gbs 


         ---------------------------------------------------------
                       SAPT(DFT): delta HF Monomer B               
         ---------------------------------------------------------
                                   SCF
               by Justin Turney, Rob Parrish, Andy Simmonett
                          and Daniel G. A. Smith
                              RHF Reference
                        4 Threads,   7629 MiB Core
         ---------------------------------------------------------

  ==> Geometry <==

    Molecular point group: c1
    Full point group: C2v

    Geometry (in Angstrom), charge = 0, multiplicity = 1:

       Center              X                  Y                   Z               Mass       
    ------------   -----------------  -----------------  -----------------  -----------------
      Gh(H)           0.000000000000     0.000000000000     2.729162886190     1.007825032230
      Gh(CL)          0.000000000000     0.000000000000     4.096622886190    34.968852682000
         H            0.000000000000    -2.147710000000    -3.050977113810     1.007825032230
         H            0.000000000000    -2.051420000000    -0.557447113810     1.007825032230
         C            0.000000000000     0.000000000000    -3.244777113810    12.000000000000
         C            0.000000000000    -1.196400000000    -2.540657113810    12.000000000000
         C            0.000000000000    -1.149310000000    -1.154727113810    12.000000000000
         N            0.000000000000     0.000000000000    -0.481727113810    14.003074004430
         C           -0.000000000000     1.149310000000    -1.154727113810    12.000000000000
         C           -0.000000000000     1.196400000000    -2.540657113810    12.000000000000
         H           -0.000000000000     2.051420000000    -0.557447113810     1.007825032230
         H           -0.000000000000     2.147710000000    -3.050977113810     1.007825032230
         H            0.000000000000     0.000000000000    -4.325347113810     1.007825032230

  Running in c1 symmetry.

  Rotational constants: A =      0.20108  B =      0.01776  C =      0.01632 [cm^-1]
  Rotational constants: A =   6028.26605  B =    532.47027  C =    489.25491 [MHz]
  Nuclear repulsion =  206.982914488470669

  Charge       = 0
  Multiplicity = 1
  Electrons    = 42
  Nalpha       = 21
  Nbeta        = 21

  ==> Algorithm <==

  SCF Algorithm Type is DF.
  DIIS enabled.
  MOM disabled.
  Fractional occupation disabled.
  Guess Type is SAD.
  Energy threshold   = 1.00e-08
  Density threshold  = 1.00e-08
  Integral threshold = 1.00e-12

  ==> Primary Basis <==

  Basis Set: THIS_BASIS
    Blend: AUG-CC-PVQZ
    Number of shells: 226
    Number of basis functions: 840
    Number of Cartesian functions: 1069
    Spherical Harmonics?: true
    Max angular momentum: 4

   => Loading Basis Set <=

    Name: (THIS_BASIS AUX)
    Role: JKFIT
    Keyword: DF_BASIS_SCF
    atoms 1, 3-4, 11-13 entry H          line    70 file /home/vance/anaconda3/envs/p4env/share/psi4/basis/aug-cc-pvqz-jkfit.gbs 
    atoms 2             entry CL         line   904 file /home/vance/anaconda3/envs/p4env/share/psi4/basis/aug-cc-pvqz-jkfit.gbs 
    atoms 5-7, 9-10     entry C          line   178 file /home/vance/anaconda3/envs/p4env/share/psi4/basis/aug-cc-pvqz-jkfit.gbs 
    atoms 8             entry N          line   248 file /home/vance/anaconda3/envs/p4env/share/psi4/basis/aug-cc-pvqz-jkfit.gbs 

  ==> Integral Setup <==

  ==> DiskDFJK: Density-Fitted J/K Matrices <==

    J tasked:                  Yes
    K tasked:                  Yes
    wK tasked:                  No
    OpenMP threads:              4
    Integrals threads:           4
    Memory [MiB]:             5722
    Algorithm:                Core
    Integral Cache:           SAVE
    Schwarz Cutoff:          1E-12
    Fitting Condition:       1E-10

   => Auxiliary Basis Set <=

  Basis Set: (THIS_BASIS AUX)
    Blend: AUG-CC-PVQZ-JKFIT
    Number of shells: 358
    Number of basis functions: 1492
    Number of Cartesian functions: 2041
    Spherical Harmonics?: true
    Max angular momentum: 5

  Minimum eigenvalue in the overlap matrix is 6.1504121040E-07.
  Reciprocal condition number of the overlap matrix is 3.4627429060E-08.
    Using symmetric orthogonalization.

  ==> Pre-Iterations <==

  SCF Guess: Superposition of Atomic Densities via on-the-fly atomic UHF (no occupation information).

   -------------------------
    Irrep   Nso     Nmo    
   -------------------------
     A        840     840 
   -------------------------
    Total     840     840
   -------------------------

  ==> Iterations <==

                           Total Energy        Delta E     RMS |[F,P]|

   @DF-RHF iter SAD:  -246.22486881235707   -2.46225e+02   0.00000e+00 
   @DF-RHF iter   1:  -246.64406809742465   -4.19199e-01   6.00248e-04 DIIS/ADIIS
   @DF-RHF iter   2:  -246.76641765122918   -1.22350e-01   2.80335e-04 DIIS/ADIIS
   @DF-RHF iter   3:  -246.79202167147361   -2.56040e-02   5.41094e-05 DIIS
   @DF-RHF iter   4:  -246.79345038957652   -1.42872e-03   1.67194e-05 DIIS
   @DF-RHF iter   5:  -246.79354637182684   -9.59823e-05   5.19199e-06 DIIS
   @DF-RHF iter   6:  -246.79355801550551   -1.16437e-05   1.22730e-06 DIIS
   @DF-RHF iter   7:  -246.79355893723547   -9.21730e-07   4.52984e-07 DIIS
   @DF-RHF iter   8:  -246.79355907567924   -1.38444e-07   2.05883e-07 DIIS
   @DF-RHF iter   9:  -246.79355912787645   -5.21972e-08   6.70018e-08 DIIS
   @DF-RHF iter  10:  -246.79355913635030   -8.47385e-09   2.27391e-08 DIIS
   @DF-RHF iter  11:  -246.79355913747759   -1.12729e-09   1.29602e-08 DIIS
   @DF-RHF iter  12:  -246.79355913770769   -2.30102e-10   2.97938e-09 DIIS
  Energy and wave function converged.


  ==> Post-Iterations <==

    Orbital Energies [Eh]
    ---------------------

    Doubly Occupied:                                                      

       1A    -15.560470     2A    -11.272266     3A    -11.272248  
       4A    -11.257400     5A    -11.239947     6A    -11.239892  
       7A     -1.259695     8A     -1.088994     9A     -1.037211  
      10A     -0.858662    11A     -0.858544    12A     -0.723886  
      13A     -0.662840    14A     -0.654494    15A     -0.602558  
      16A     -0.575916    17A     -0.543829    18A     -0.523325  
      19A     -0.413748    20A     -0.383772    21A     -0.349866  

    Virtual:                                                              

      22A      0.022931    23A      0.028794    24A      0.029577  
      25A      0.041452    26A      0.043001    27A      0.057772  
      28A      0.061704    29A      0.080288    30A      0.086935  
      31A      0.087438    32A      0.087578    33A      0.087699  
      34A      0.094183    35A      0.097332    36A      0.098694  
      37A      0.102267    38A      0.112620    39A      0.112947  
      40A      0.113110    41A      0.118932    42A      0.121844  
      43A      0.126543    44A      0.126579    45A      0.131150  
      46A      0.137258    47A      0.141538    48A      0.147342  
      49A      0.152007    50A      0.187598    51A      0.200777  
      52A      0.203937    53A      0.210193    54A      0.214081  
      55A      0.214467    56A      0.224311    57A      0.239068  
      58A      0.241222    59A      0.247388    60A      0.247834  
      61A      0.252735    62A      0.254023    63A      0.254058  
      64A      0.268221    65A      0.274469    66A      0.280509  
      67A      0.285923    68A      0.286433    69A      0.287820  
      70A      0.288419    71A      0.295531    72A      0.298254  
      73A      0.301275    74A      0.313700    75A      0.314128  
      76A      0.318379    77A      0.319662    78A      0.326512  
      79A      0.327750    80A      0.330891    81A      0.333610  
      82A      0.345193    83A      0.351767    84A      0.353195  
      85A      0.354914    86A      0.365816    87A      0.371252  
      88A      0.372995    89A      0.381316    90A      0.383228  
      91A      0.394089    92A      0.396045    93A      0.400128  
      94A      0.407692    95A      0.420824    96A      0.425799  
      97A      0.430321    98A      0.431090    99A      0.433122  
     100A      0.437374   101A      0.442874   102A      0.449340  
     103A      0.456706   104A      0.460066   105A      0.465722  
     106A      0.467221   107A      0.469223   108A      0.471415  
     109A      0.476366   110A      0.504270   111A      0.507766  
     112A      0.513559   113A      0.514632   114A      0.517107  
     115A      0.522186   116A      0.525484   117A      0.535925  
     118A      0.557883   119A      0.568339   120A      0.570231  
     121A      0.576427   122A      0.582487   123A      0.588014  
     124A      0.589249   125A      0.603359   126A      0.606417  
     127A      0.609959   128A      0.613511   129A      0.636617  
     130A      0.642249   131A      0.645643   132A      0.658385  
     133A      0.665534   134A      0.672354   135A      0.679035  
     136A      0.682887   137A      0.689357   138A      0.703039  
     139A      0.709971   140A      0.722597   141A      0.729405  
     142A      0.734478   143A      0.735991   144A      0.736916  
     145A      0.743643   146A      0.744709   147A      0.746906  
     148A      0.751223   149A      0.769398   150A      0.780167  
     151A      0.782953   152A      0.784779   153A      0.787499  
     154A      0.788286   155A      0.790720   156A      0.794787  
     157A      0.800987   158A      0.807350   159A      0.825923  
     160A      0.826475   161A      0.826904   162A      0.834569  
     163A      0.840392   164A      0.851428   165A      0.859271  
     166A      0.863553   167A      0.863902   168A      0.865092  
     169A      0.875431   170A      0.883794   171A      0.901539  
     172A      0.904407   173A      0.915168   174A      0.916104  
     175A      0.929044   176A      0.937261   177A      0.942716  
     178A      0.946087   179A      0.946277   180A      0.952477  
     181A      0.957855   182A      0.963174   183A      0.965901  
     184A      0.966654   185A      0.969855   186A      0.984601  
     187A      0.986434   188A      0.994756   189A      0.997844  
     190A      1.000879   191A      1.005656   192A      1.010865  
     193A      1.020604   194A      1.024647   195A      1.037739  
     196A      1.041281   197A      1.053477   198A      1.057833  
     199A      1.068519   200A      1.078719   201A      1.088130  
     202A      1.093758   203A      1.100677   204A      1.110908  
     205A      1.113570   206A      1.125833   207A      1.126163  
     208A      1.141980   209A      1.144545   210A      1.153130  
     211A      1.170625   212A      1.172831   213A      1.176796  
     214A      1.182609   215A      1.188350   216A      1.192197  
     217A      1.194667   218A      1.215065   219A      1.229834  
     220A      1.235049   221A      1.240978   222A      1.249352  
     223A      1.259780   224A      1.264711   225A      1.295066  
     226A      1.305848   227A      1.315615   228A      1.321901  
     229A      1.340968   230A      1.346666   231A      1.351214  
     232A      1.357724   233A      1.360220   234A      1.366651  
     235A      1.381837   236A      1.390407   237A      1.397191  
     238A      1.400224   239A      1.401385   240A      1.414463  
     241A      1.425477   242A      1.430278   243A      1.432498  
     244A      1.437229   245A      1.454919   246A      1.460848  
     247A      1.496340   248A      1.521131   249A      1.525407  
     250A      1.537850   251A      1.545931   252A      1.550290  
     253A      1.554735   254A      1.561168   255A      1.563586  
     256A      1.574585   257A      1.583626   258A      1.587087  
     259A      1.587430   260A      1.602125   261A      1.609483  
     262A      1.628542   263A      1.637607   264A      1.640049  
     265A      1.665885   266A      1.669564   267A      1.681224  
     268A      1.684736   269A      1.687990   270A      1.701869  
     271A      1.709555   272A      1.710457   273A      1.716507  
     274A      1.740347   275A      1.743997   276A      1.761298  
     277A      1.761987   278A      1.768543   279A      1.782070  
     280A      1.797153   281A      1.799757   282A      1.800814  
     283A      1.808376   284A      1.835429   285A      1.853310  
     286A      1.856277   287A      1.867094   288A      1.875509  
     289A      1.911475   290A      1.913931   291A      1.918383  
     292A      1.928619   293A      1.936936   294A      1.947482  
     295A      1.947522   296A      1.953628   297A      1.976403  
     298A      1.978309   299A      1.978551   300A      1.980779  
     301A      1.993678   302A      1.997946   303A      2.004660  
     304A      2.010744   305A      2.011645   306A      2.015722  
     307A      2.035307   308A      2.050581   309A      2.051452  
     310A      2.052240   311A      2.055932   312A      2.065554  
     313A      2.075680   314A      2.075981   315A      2.082328  
     316A      2.099132   317A      2.100760   318A      2.101183  
     319A      2.126457   320A      2.132075   321A      2.132869  
     322A      2.140660   323A      2.145783   324A      2.154902  
     325A      2.158832   326A      2.168295   327A      2.170279  
     328A      2.180333   329A      2.180806   330A      2.199568  
     331A      2.208964   332A      2.235902   333A      2.240054  
     334A      2.242824   335A      2.258842   336A      2.259825  
     337A      2.278474   338A      2.280777   339A      2.286096  
     340A      2.292534   341A      2.294201   342A      2.306381  
     343A      2.311988   344A      2.318323   345A      2.327777  
     346A      2.330723   347A      2.337386   348A      2.337754  
     349A      2.364344   350A      2.366975   351A      2.371389  
     352A      2.372900   353A      2.384648   354A      2.384829  
     355A      2.387405   356A      2.394294   357A      2.399386  
     358A      2.417356   359A      2.422287   360A      2.428440  
     361A      2.430677   362A      2.436093   363A      2.445209  
     364A      2.472559   365A      2.480649   366A      2.483165  
     367A      2.483872   368A      2.496091   369A      2.502593  
     370A      2.508875   371A      2.512510   372A      2.513535  
     373A      2.516441   374A      2.520301   375A      2.529473  
     376A      2.543400   377A      2.556875   378A      2.559788  
     379A      2.577162   380A      2.582092   381A      2.583885  
     382A      2.589536   383A      2.603728   384A      2.604401  
     385A      2.613597   386A      2.640494   387A      2.641301  
     388A      2.647028   389A      2.669895   390A      2.711825  
     391A      2.715369   392A      2.720230   393A      2.762412  
     394A      2.762553   395A      2.767973   396A      2.781449  
     397A      2.781882   398A      2.782929   399A      2.807557  
     400A      2.814340   401A      2.815304   402A      2.829232  
     403A      2.834870   404A      2.851283   405A      2.869489  
     406A      2.875799   407A      2.887047   408A      2.893450  
     409A      2.911295   410A      2.918433   411A      2.920394  
     412A      2.943040   413A      2.960638   414A      2.981477  
     415A      2.995139   416A      3.021450   417A      3.022009  
     418A      3.022752   419A      3.026044   420A      3.054050  
     421A      3.072167   422A      3.084591   423A      3.089788  
     424A      3.105902   425A      3.119577   426A      3.140906  
     427A      3.142394   428A      3.147570   429A      3.170851  
     430A      3.203671   431A      3.209485   432A      3.211295  
     433A      3.226997   434A      3.246723   435A      3.260027  
     436A      3.261575   437A      3.267686   438A      3.273210  
     439A      3.291090   440A      3.302457   441A      3.302493  
     442A      3.302535   443A      3.322068   444A      3.324946  
     445A      3.325652   446A      3.368873   447A      3.373254  
     448A      3.386460   449A      3.392867   450A      3.405458  
     451A      3.435146   452A      3.466903   453A      3.469459  
     454A      3.487446   455A      3.493530   456A      3.540608  
     457A      3.555679   458A      3.567007   459A      3.571217  
     460A      3.573607   461A      3.588983   462A      3.614440  
     463A      3.615715   464A      3.629829   465A      3.654059  
     466A      3.658402   467A      3.681913   468A      3.692045  
     469A      3.701452   470A      3.726440   471A      3.757969  
     472A      3.763522   473A      3.777891   474A      3.782715  
     475A      3.810082   476A      3.823079   477A      3.837696  
     478A      3.883389   479A      3.896727   480A      3.902452  
     481A      3.923639   482A      3.925521   483A      3.931900  
     484A      3.933752   485A      3.963585   486A      3.978875  
     487A      3.989555   488A      4.011671   489A      4.016348  
     490A      4.046984   491A      4.052025   492A      4.056378  
     493A      4.068574   494A      4.096223   495A      4.140851  
     496A      4.141915   497A      4.159056   498A      4.162117  
     499A      4.170440   500A      4.193397   501A      4.211763  
     502A      4.245316   503A      4.270725   504A      4.275252  
     505A      4.276375   506A      4.292761   507A      4.334685  
     508A      4.341450   509A      4.354415   510A      4.386288  
     511A      4.401828   512A      4.408655   513A      4.411202  
     514A      4.436180   515A      4.440576   516A      4.459193  
     517A      4.483094   518A      4.485245   519A      4.508628  
     520A      4.514404   521A      4.518178   522A      4.569214  
     523A      4.569492   524A      4.589019   525A      4.624388  
     526A      4.626342   527A      4.637689   528A      4.684713  
     529A      4.711806   530A      4.725962   531A      4.732519  
     532A      4.757901   533A      4.797127   534A      4.821942  
     535A      4.841460   536A      4.906005   537A      4.911068  
     538A      4.916564   539A      4.931767   540A      4.944197  
     541A      4.987389   542A      5.009595   543A      5.034808  
     544A      5.041560   545A      5.067555   546A      5.082203  
     547A      5.152447   548A      5.183412   549A      5.215883  
     550A      5.228378   551A      5.260458   552A      5.335082  
     553A      5.421557   554A      5.421637   555A      5.421868  
     556A      5.425675   557A      5.444410   558A      5.450276  
     559A      5.453494   560A      5.460821   561A      5.478191  
     562A      5.491211   563A      5.528740   564A      5.534257  
     565A      5.639608   566A      5.719419   567A      5.760355  
     568A      5.788387   569A      5.818513   570A      5.820219  
     571A      5.837624   572A      5.849996   573A      5.851720  
     574A      5.891835   575A      5.929618   576A      5.948614  
     577A      5.991734   578A      6.011971   579A      6.046728  
     580A      6.083837   581A      6.102136   582A      6.115543  
     583A      6.125511   584A      6.139265   585A      6.158804  
     586A      6.174972   587A      6.203859   588A      6.215941  
     589A      6.233568   590A      6.248962   591A      6.251567  
     592A      6.279139   593A      6.316107   594A      6.317113  
     595A      6.321265   596A      6.322108   597A      6.340980  
     598A      6.386028   599A      6.387053   600A      6.439988  
     601A      6.450764   602A      6.473621   603A      6.484672  
     604A      6.490293   605A      6.540242   606A      6.550390  
[...]
     268A      1.493659   269A      1.510001   270A      1.518760  
     271A      1.519466   272A      1.522010   273A      1.542771  
     274A      1.545762   275A      1.550249   276A      1.565008  
     277A      1.569464   278A      1.579262   279A      1.581676  
     280A      1.587485   281A      1.596132   282A      1.602078  
     283A      1.603784   284A      1.620578   285A      1.635424  
     286A      1.643614   287A      1.660536   288A      1.677850  
     289A      1.687634   290A      1.687976   291A      1.702758  
     292A      1.720047   293A      1.723542   294A      1.724473  
     295A      1.737759   296A      1.742352   297A      1.745643  
     298A      1.750611   299A      1.768815   300A      1.771604  
     301A      1.777718   302A      1.780926   303A      1.785697  
     304A      1.791752   305A      1.795148   306A      1.805057  
     307A      1.820149   308A      1.821630   309A      1.822606  
     310A      1.837911   311A      1.847087   312A      1.847509  
     313A      1.856586   314A      1.867679   315A      1.877999  
     316A      1.878223   317A      1.880753   318A      1.882151  
     319A      1.897511   320A      1.901103   321A      1.904372  
     322A      1.921119   323A      1.923671   324A      1.938859  
     325A      1.942115   326A      1.943418   327A      1.968465  
     328A      1.986475   329A      1.989175   330A      1.992689  
     331A      1.993049   332A      2.010693   333A      2.014427  
     334A      2.030212   335A      2.030995   336A      2.032151  
     337A      2.036495   338A      2.052345   339A      2.067017  
     340A      2.069900   341A      2.076903   342A      2.077218  
     343A      2.077572   344A      2.086239   345A      2.088827  
     346A      2.092470   347A      2.112106   348A      2.117506  
     349A      2.118969   350A      2.121497   351A      2.146528  
     352A      2.146576   353A      2.152653   354A      2.162467  
     355A      2.173312   356A      2.189929   357A      2.193907  
     358A      2.203635   359A      2.204082   360A      2.204404  
     361A      2.210499   362A      2.213343   363A      2.230354  
     364A      2.233911   365A      2.235470   366A      2.250326  
     367A      2.254231   368A      2.267859   369A      2.267966  
     370A      2.269587   371A      2.279400   372A      2.290396  
     373A      2.301065   374A      2.301767   375A      2.304354  
     376A      2.304448   377A      2.308922   378A      2.315985  
     379A      2.329185   380A      2.333429   381A      2.356318  
     382A      2.357892   383A      2.360189   384A      2.368354  
     385A      2.381795   386A      2.390057   387A      2.407152  
     388A      2.428078   389A      2.433484   390A      2.436177  
     391A      2.459707   392A      2.468677   393A      2.469269  
     394A      2.469867   395A      2.478294   396A      2.502137  
     397A      2.505403   398A      2.513840   399A      2.516144  
     400A      2.543353   401A      2.547924   402A      2.558870  
     403A      2.568828   404A      2.587954   405A      2.609028  
     406A      2.612721   407A      2.621003   408A      2.646360  
     409A      2.648403   410A      2.669092   411A      2.698848  
     412A      2.714210   413A      2.726532   414A      2.727374  
     415A      2.737765   416A      2.738742   417A      2.740903  
     418A      2.783425   419A      2.789928   420A      2.792865  
     421A      2.795502   422A      2.811737   423A      2.835695  
     424A      2.837521   425A      2.837685   426A      2.866085  
     427A      2.871265   428A      2.873677   429A      2.896687  
     430A      2.923662   431A      2.928772   432A      2.937142  
     433A      2.961841   434A      2.962671   435A      2.981735  
     436A      2.983221   437A      2.984133   438A      2.993013  
     439A      3.013278   440A      3.015039   441A      3.040958  
     442A      3.067600   443A      3.068027   444A      3.073298  
     445A      3.075377   446A      3.092063   447A      3.124554  
     448A      3.131436   449A      3.138515   450A      3.159190  
     451A      3.164037   452A      3.169329   453A      3.187964  
     454A      3.201011   455A      3.232750   456A      3.235920  
     457A      3.246391   458A      3.259366   459A      3.280162  
     460A      3.285477   461A      3.288290   462A      3.313493  
     463A      3.340696   464A      3.363214   465A      3.375054  
     466A      3.380322   467A      3.382367   468A      3.405592  
     469A      3.427507   470A      3.433643   471A      3.442166  
     472A      3.454061   473A      3.460948   474A      3.480598  
     475A      3.495259   476A      3.497509   477A      3.511014  
     478A      3.537910   479A      3.569949   480A      3.587284  
     481A      3.590397   482A      3.593844   483A      3.601941  
     484A      3.603856   485A      3.634981   486A      3.647563  
     487A      3.664985   488A      3.671094   489A      3.685778  
     490A      3.697856   491A      3.701137   492A      3.720177  
     493A      3.728695   494A      3.754071   495A      3.803948  
     496A      3.813915   497A      3.823176   498A      3.843116  
     499A      3.844696   500A      3.866793   501A      3.896212  
     502A      3.924427   503A      3.948789   504A      3.959183  
     505A      3.981824   506A      3.983921   507A      4.008130  
     508A      4.019625   509A      4.034798   510A      4.058108  
     511A      4.059326   512A      4.073590   513A      4.082585  
     514A      4.090028   515A      4.126466   516A      4.127999  
     517A      4.133503   518A      4.148167   519A      4.155221  
     520A      4.158907   521A      4.198571   522A      4.216570  
     523A      4.217476   524A      4.230576   525A      4.249022  
     526A      4.280079   527A      4.291659   528A      4.335472  
     529A      4.340315   530A      4.367968   531A      4.384393  
     532A      4.398844   533A      4.441750   534A      4.474674  
     535A      4.517648   536A      4.539630   537A      4.574130  
     538A      4.578723   539A      4.582765   540A      4.631409  
     541A      4.645645   542A      4.646850   543A      4.677072  
     544A      4.683077   545A      4.694692   546A      4.736687  
     547A      4.793974   548A      4.816172   549A      4.823862  
     550A      4.835722   551A      4.849633   552A      4.949590  
     553A      5.029734   554A      5.043805   555A      5.059252  
     556A      5.109045   557A      5.138017   558A      5.140003  
     559A      5.222081   560A      5.327374   561A      5.350409  
     562A      5.350473   563A      5.364475   564A      5.378114  
     565A      5.378965   566A      5.381417   567A      5.404300  
     568A      5.405812   569A      5.421571   570A      5.432245  
     571A      5.450508   572A      5.475580   573A      5.533043  
     574A      5.576117   575A      5.585178   576A      5.622515  
     577A      5.665764   578A      5.676019   579A      5.697805  
     580A      5.703581   581A      5.707491   582A      5.712080  
     583A      5.733637   584A      5.735620   585A      5.746006  
     586A      5.780301   587A      5.792447   588A      5.861871  
     589A      5.883172   590A      5.886487   591A      5.920376  
     592A      5.938362   593A      5.955482   594A      6.019593  
     595A      6.023782   596A      6.046429   597A      6.048788  
     598A      6.085874   599A      6.108429   600A      6.109628  
     601A      6.154248   602A      6.162679   603A      6.164099  
     604A      6.172125   605A      6.177370   606A      6.177510  
     607A      6.179842   608A      6.208421   609A      6.211982  
     610A      6.218030   611A      6.224460   612A      6.225559  
     613A      6.230308   614A      6.239394   615A      6.251541  
     616A      6.260228   617A      6.307471   618A      6.327925  
     619A      6.350552   620A      6.353467   621A      6.372418  
     622A      6.399087   623A      6.411960   624A      6.422274  
     625A      6.448384   626A      6.473953   627A      6.495208  
     628A      6.503573   629A      6.508675   630A      6.531172  
     631A      6.560535   632A      6.566693   633A      6.619592  
     634A      6.622494   635A      6.630358   636A      6.669719  
     637A      6.686467   638A      6.688842   639A      6.704923  
     640A      6.715306   641A      6.732394   642A      6.734461  
     643A      6.745190   644A      6.767506   645A      6.776971  
     646A      6.779547   647A      6.784304   648A      6.792984  
     649A      6.803960   650A      6.814107   651A      6.887383  
     652A      6.896661   653A      6.896845   654A      6.904256  
     655A      6.928469   656A      6.954602   657A      6.965614  
     658A      6.966182   659A      6.979583   660A      7.027889  
     661A      7.038453   662A      7.072190   663A      7.096274  
     664A      7.119759   665A      7.154307   666A      7.166595  
     667A      7.187417   668A      7.190027   669A      7.210582  
     670A      7.213182   671A      7.220410   672A      7.222939  
     673A      7.260533   674A      7.294335   675A      7.301781  
     676A      7.341481   677A      7.342720   678A      7.352810  
     679A      7.360057   680A      7.360250   681A      7.404867  
     682A      7.409866   683A      7.453218   684A      7.488395  
     685A      7.503755   686A      7.546144   687A      7.562588  
     688A      7.567845   689A      7.582651   690A      7.614051  
     691A      7.620612   692A      7.657772   693A      7.659362  
     694A      7.665796   695A      7.679604   696A      7.696060  
     697A      7.705751   698A      7.709483   699A      7.743359  
     700A      7.792453   701A      7.872324   702A      7.886876  
     703A      7.908877   704A      7.911982   705A      7.927939  
     706A      7.930768   707A      8.018866   708A      8.066311  
     709A      8.089984   710A      8.108315   711A      8.169736  
     712A      8.180611   713A      8.186668   714A      8.226577  
     715A      8.251663   716A      8.263825   717A      8.293528  
     718A      8.294791   719A      8.300245   720A      8.318071  
     721A      8.325317   722A      8.366101   723A      8.392379  
     724A      8.415208   725A      8.424043   726A      8.441719  
     727A      8.464621   728A      8.493048   729A      8.496361  
     730A      8.510439   731A      8.521078   732A      8.526651  
     733A      8.613376   734A      8.614829   735A      8.631511  
     736A      8.645652   737A      8.687918   738A      8.706204  
     739A      8.722939   740A      8.788883   741A      8.796485  
     742A      8.818545   743A      8.897030   744A      8.902963  
     745A      8.955857   746A      8.965721   747A      8.971158  
     748A      8.972014   749A      9.016963   750A      9.074764  
     751A      9.074842   752A      9.084471   753A      9.100874  
     754A      9.113581   755A      9.123656   756A      9.126646  
     757A      9.137556   758A      9.163165   759A      9.165882  
     760A      9.176692   761A      9.274573   762A      9.275057  
     763A      9.279130   764A      9.290685   765A      9.350784  
     766A      9.391971   767A      9.449421   768A      9.458817  
     769A      9.470128   770A      9.470813   771A      9.488367  
     772A      9.498264   773A      9.534336   774A      9.545206  
     775A      9.547113   776A      9.574209   777A      9.605998  
     778A      9.752465   779A      9.773428   780A      9.775593  
     781A      9.783955   782A      9.818377   783A      9.844758  
     784A      9.864798   785A      9.868217   786A      9.877760  
     787A      9.914922   788A      9.916614   789A      9.948809  
     790A      9.991142   791A      9.997525   792A     10.017105  
     793A     10.025553   794A     10.037619   795A     10.126669  
     796A     10.157899   797A     10.198477   798A     10.242945  
     799A     10.264941   800A     10.280589   801A     10.318078  
     802A     10.321454   803A     10.396897   804A     10.409338  
     805A     10.511332   806A     10.584875   807A     10.613364  
     808A     10.726477   809A     10.729622   810A     10.866917  
     811A     10.873431   812A     10.946243   813A     10.999702  
     814A     11.053891   815A     11.155195   816A     11.200013  
     817A     11.213471   818A     11.280866   819A     11.394901  
     820A     11.843829   821A     11.957496   822A     12.172002  
     823A     12.366157   824A     12.685344   825A     12.830309  
     826A     12.851766   827A     12.977494   828A     13.011411  
     829A     13.077729   830A     25.147597   831A     25.268994  
     832A     25.509732   833A     25.888249   834A     26.193969  
     835A     30.920096   836A     30.960639   837A     31.295207  
     838A     33.026396   839A     42.468409   840A    160.265994  

    Final Occupation by Irrep:
              A 
    DOCC [    21 ]
    NA   [    21 ]
    NB   [    21 ]

  @DF-RKS Final Energy:  -248.08802246103977

   => Energetics <=

    Nuclear Repulsion Energy =            206.9829144884706693
    One-Electron Energy =                -743.5525834175299451
    Two-Electron Energy =                 315.5337448274029839
    DFT Exchange-Correlation Energy =     -27.0520983593834643
    Empirical Dispersion Energy =           0.0000000000000000
    VV10 Nonlocal Energy =                  0.0000000000000000
    Total Energy =                       -248.0880224610397704

Computation Completed


Properties will be evaluated at   0.000000,   0.000000,   0.000000 [a0]

Properties computed using the SCF density matrix


 Multipole Moments:

 ------------------------------------------------------------------------------------
     Multipole            Electronic (a.u.)      Nuclear  (a.u.)        Total (a.u.)
 ------------------------------------------------------------------------------------

 L = 1.  Multiply by 2.5417464519 to convert [e a0] to [Debye]
 Dipole X            :         -0.0000000           -0.0000000           -0.0000000
 Dipole Y            :          0.0000000           -0.0000000            0.0000000
 Dipole Z            :        147.9094914         -148.7735246           -0.8640332
 Magnitude           :                                                    0.8640332

 ------------------------------------------------------------------------------------

*** tstop() called on cmpsrv002 at Wed Sep 18 19:56:42 2024
Module time:
	user time   =    1447.27 seconds =      24.12 minutes
	system time =     114.39 seconds =       1.91 minutes
	total time  =        533 seconds =       8.88 minutes
Total time:
	user time   =    6076.53 seconds =     101.28 minutes
	system time =     290.47 seconds =       4.84 minutes
	total time  =       2574 seconds =      42.90 minutes

         ---------------------------------------------------------
               SAPT(DFT): Intermolecular Interaction Segment       

                   by Daniel G. A. Smith and Rob Parrish           
         ---------------------------------------------------------

  ==> Algorithm <==

   SAPT DFT Functional             PBE0
   Monomer A GRAC Shift        0.116251
   Monomer B GRAC Shift        0.074627
   Delta HF                        True
   JK Algorithm                      DF

  ==> Preparing SAPT Data Cache <== 

  ==> DiskDFJK: Density-Fitted J/K Matrices <==

    J tasked:                  Yes
    K tasked:                  Yes
    wK tasked:                  No
    OpenMP threads:              4
    Integrals threads:           4
    Memory [MiB]:             3694
    Algorithm:                Disk
    Integral Cache:           SAVE
    Schwarz Cutoff:          1E-12
    Fitting Condition:       1E-10

   => Auxiliary Basis Set <=

  Basis Set: (THIS_BASIS AUX)
    Blend: AUG-CC-PVQZ-JKFIT
    Number of shells: 358
    Number of basis functions: 1492
    Number of Cartesian functions: 2041
    Spherical Harmonics?: true
    Max angular momentum: 5


  ==> E10 Electostatics <== 

    Elst10,r                         -3.53787150 [mEh]

  ==> E10 Exchange <== 

    Exch10(S^2)                       0.41222268 [mEh]
    Exch10                            0.41242801 [mEh]

  ==> E20 Induction <== 

   => Uncoupled Induction <= 

    Ind20,u (A<-B)                   -0.20271482 [mEh]
    Ind20,u (A->B)                   -0.35053032 [mEh]
    Ind20,u                          -0.55324514 [mEh]
    Exch-Ind20,u (A<-B)               0.00689742 [mEh]
    Exch-Ind20,u (A->B)               0.09156680 [mEh]
    Exch-Ind20,u                      0.09846422 [mEh]
    Exch-Ind20,u (A<-B) (S^inf)       0.00689674 [mEh]
    Exch-Ind20,u (A->B) (S^inf)       0.09168493 [mEh]
    Exch-Ind20,u (S^inf)              0.09858168 [mEh]

   => Coupled Induction <= 

   ---------------------------------------------------
              SAPT Coupled Induction Solver           
   ---------------------------------------------------
    Maxiter             =          20
    Convergence         =   1.000E-06
   ---------------------------------------------------
     Iter       (A<-B)           (B->A)      Time [s]
   ---------------------------------------------------
    Guess    8.175944e-01     6.577349e-01        124
        1    9.824878e-02     1.233151e-01        245
        2    1.724586e-02     3.177405e-02        364
        3    4.438439e-03     1.193835e-02        484
        4    4.309419e-04     1.965506e-03        596
        5    4.911021e-05     5.935707e-04        683
        6    2.714524e-06     1.728296e-04        845
        7    3.144833e-07*    5.977294e-05        885
        8    3.144833e-07*    1.562771e-05        908
        9    3.144833e-07*    2.706789e-06        939
       10    3.144833e-07*    6.110639e-07*      1006
   ---------------------------------------------------

    Ind20,r (A<-B)                   -0.15011992 [mEh]
    Ind20,r (A->B)                   -0.32224731 [mEh]
    Ind20,r                          -0.47236723 [mEh]
    Exch-Ind20,r (A<-B)               0.00717608 [mEh]
    Exch-Ind20,r (A->B)               0.10392807 [mEh]
    Exch-Ind20,r                      0.11110415 [mEh]
    Exch-Ind20,r (A<-B) (S^inf)       0.00717509 [mEh]
    Exch-Ind20,r (A->B) (S^inf)       0.10406325 [mEh]
    Exch-Ind20,r (S^inf)              0.11123834 [mEh]
   => Loading Basis Set <=

    Name: (THIS_BASIS AUX)
    Role: RIFIT
    Keyword: DF_BASIS_MP2
    atoms 1, 3-4, 11-13 entry H          line    30 file /home/vance/anaconda3/envs/p4env/share/psi4/basis/aug-cc-pvqz-ri.gbs 
    atoms 2             entry CL         line   914 file /home/vance/anaconda3/envs/p4env/share/psi4/basis/aug-cc-pvqz-ri.gbs 
    atoms 5-7, 9-10     entry C          line   184 file /home/vance/anaconda3/envs/p4env/share/psi4/basis/aug-cc-pvqz-ri.gbs 
    atoms 8             entry N          line   258 file /home/vance/anaconda3/envs/p4env/share/psi4/basis/aug-cc-pvqz-ri.gbs 



  ==> E20 Dispersion (CHF FDDS) <== 

   Legendre Points:          10
   Lambda Shift:          0.300
   Fxc Kernal:             ALDA
   (P|Fxc|Q) Thresh:  1.000e-06
  DFHelper Memory: AOs need 8.017 GiB; user supplied 5.960 GiB. 
  Turning off in-core AOs.

  ==> DFHelper <==
    NBF:                             840
    NAux:                           1682
    Schwarz Cutoff:                1E-12
    Mask sparsity (%):                12
    DFH Avail. Memory [GiB]:       5.960
    OpenMP threads:                    4
    Algorithm:                    DIRECT
    AO Core:                       False
    MO Core:                       False
    Hold Metric:                   False
    Metric Power:                  0.000
    Fitting Condition:             1E-12
    Q Shell Max:                      11


  DFHelper Memory: AOs need 9.058 GiB; user supplied 5.960 GiB. 
  Turning off in-core AOs.

