
    -----------------------------------------------------------------------
          Psi4: An Open-Source Ab Initio Electronic Structure Package
                               Psi4 1.9.1 release

                         Git: Rev {} zzzzzzz 


    D. G. A. Smith, L. A. Burns, A. C. Simmonett, R. M. Parrish,
    M. C. Schieber, R. Galvelis, P. Kraus, H. Kruse, R. Di Remigio,
    A. Alenaizan, A. M. James, S. Lehtola, J. P. Misiewicz, M. Scheurer,
    R. A. Shaw, J. B. Schriber, Y. Xie, Z. L. Glick, D. A. Sirianni,
    J. S. O'Brien, J. M. Waldrop, A. Kumar, E. G. Hohenstein,
    B. P. Pritchard, B. R. Brooks, H. F. Schaefer III, A. Yu. Sokolov,
    K. Patkowski, A. E. DePrince III, U. Bozkaya, R. A. King,
    F. A. Evangelista, J. M. Turney, T. D. Crawford, C. D. Sherrill,
    J. Chem. Phys. 152(18) 184108 (2020). https://doi.org/10.1063/5.0006002

                            Additional Code Authors
    E. T. Seidl, C. L. Janssen, E. F. Valeev, M. L. Leininger,
    J. F. Gonthier, R. M. Richard, H. R. McAlexander, M. Saitow, X. Wang,
    P. Verma, M. H. Lechner, A. Jiang, S. Behnle, A. G. Heide,
    M. F. Herbst, and D. L. Poole

             Previous Authors, Complete List of Code Contributors,
                       and Citations for Specific Modules
    https://github.com/psi4/psi4/blob/master/codemeta.json
    https://github.com/psi4/psi4/graphs/contributors
    http://psicode.org/psi4manual/master/introduction.html#citing-psifour

    -----------------------------------------------------------------------


    Psi4 started on: Thursday, 19 September 2024 02:16PM

    Process ID: 605869
    Host:       cmpsrv002
    PSIDATADIR: /home/vance/anaconda3/envs/p4env/share/psi4
    Memory:     500.0 MiB
    Threads:    8
    
  ==> Input File <==

--------------------------------------------------------------------------
#charge=0 charge_a=0 charge_b=0 selection_a=1-2 selection_b=3-13 scaling=2.0 benchmark_Eint=-2.864 benchmark_unit=kcal/mol group=XH-N
set_num_threads(4)
memory 8 GB
basis this_basis {
    assign    def2-qzvp
}

molecule {
     0 1
    --
     0 1
     H        0.00000        0.00000        1.62588
    Cl        0.00000        0.00000        2.99334
    --
     0 1
     H        0.00000       -2.14771       -4.15426
     H        0.00000       -2.05142       -1.66073
     C        0.00000        0.00000       -4.34806
     C        0.00000       -1.19640       -3.64394
     C        0.00000       -1.14931       -2.25801
     N        0.00000        0.00000       -1.58501
     C        0.00000        1.14931       -2.25801
     C        0.00000        1.19640       -3.64394
     H        0.00000        2.05142       -1.66073
     H        0.00000        2.14771       -4.15426
     H        0.00000        0.00000       -5.42863
}

set {
    sapt_dft_functional     PBE0
    scf_type                DF
    freeze_core             true
    sapt_dft_grac_shift_a    0.116251
    sapt_dft_grac_shift_b    0.074627
    sapt_dft_do_hybrid      true
    do_ind_exch_sinf        true
    do_disp_exch_sinf       true
}

nrg = energy('sapt(DFT)')
--------------------------------------------------------------------------
  Threads set to 4 by Python driver.

  Memory set to   7.451 GiB by Python driver.

Scratch directory: /scratch2/vance/psi4/

*** tstart() called on cmpsrv002
*** at Thu Sep 19 14:16:09 2024

  SAPT does not make use of molecular symmetry, further calculations in C1 point group.

         ---------------------------------------------------------
                            SAPT(DFT) Procedure                    

                           by Daniel G. A. Smith                   
         ---------------------------------------------------------

Warning! The default value of SAPT_DFT_EXCH_DISP_SCALE_SCHEME has changed from DISP to FIXED. Please be careful comparing results with earlier versions. 

  ==> Algorithm <==

   SAPT DFT Functional             PBE0
   Monomer A GRAC Shift        0.116251
   Monomer B GRAC Shift        0.074627
   Delta HF                        True
   JK Algorithm                      DF

   Required computations:
     HF  (Dimer)
     HF  (Monomer A)
     HF  (Monomer B)
     DFT (Monomer A)
     DFT (Monomer B)

   => Libint2 <=

    Primary   basis highest AM E, G, H:  6, 6, 3
    Auxiliary basis highest AM E, G, H:  7, 7, 4
    Onebody   basis highest AM E, G, H:  -, -, -
    Solid Harmonics ordering:            Gaussian

*** tstart() called on cmpsrv002
*** at Thu Sep 19 14:16:09 2024

   => Loading Basis Set <=

    Name: THIS_BASIS
    Role: ORBITAL
    Keyword: BASIS
    atoms 1, 3-4, 11-13 entry H          line    15 file /home/vance/anaconda3/envs/p4env/share/psi4/basis/def2-qzvp.gbs 
    atoms 2             entry CL         line   809 file /home/vance/anaconda3/envs/p4env/share/psi4/basis/def2-qzvp.gbs 
    atoms 5-7, 9-10     entry C          line   194 file /home/vance/anaconda3/envs/p4env/share/psi4/basis/def2-qzvp.gbs 
    atoms 8             entry N          line   242 file /home/vance/anaconda3/envs/p4env/share/psi4/basis/def2-qzvp.gbs 


         ---------------------------------------------------------
                         SAPT(DFT): delta HF Dimer                 
         ---------------------------------------------------------
                                   SCF
               by Justin Turney, Rob Parrish, Andy Simmonett
                          and Daniel G. A. Smith
                              RHF Reference
                        4 Threads,   7629 MiB Core
         ---------------------------------------------------------

  ==> Geometry <==

    Molecular point group: c1
    Full point group: C2v

    Geometry (in Angstrom), charge = 0, multiplicity = 1:

       Center              X                  Y                   Z               Mass       
    ------------   -----------------  -----------------  -----------------  -----------------
         H            0.000000000000     0.000000000000     2.729162886190     1.007825032230
         CL           0.000000000000     0.000000000000     4.096622886190    34.968852682000
         H            0.000000000000    -2.147710000000    -3.050977113810     1.007825032230
         H            0.000000000000    -2.051420000000    -0.557447113810     1.007825032230
         C            0.000000000000     0.000000000000    -3.244777113810    12.000000000000
         C            0.000000000000    -1.196400000000    -2.540657113810    12.000000000000
         C            0.000000000000    -1.149310000000    -1.154727113810    12.000000000000
         N            0.000000000000     0.000000000000    -0.481727113810    14.003074004430
         C           -0.000000000000     1.149310000000    -1.154727113810    12.000000000000
         C           -0.000000000000     1.196400000000    -2.540657113810    12.000000000000
         H           -0.000000000000     2.051420000000    -0.557447113810     1.007825032230
         H           -0.000000000000     2.147710000000    -3.050977113810     1.007825032230
         H            0.000000000000     0.000000000000    -4.325347113810     1.007825032230

  Running in c1 symmetry.

  Rotational constants: A =      0.20108  B =      0.01776  C =      0.01632 [cm^-1]
  Rotational constants: A =   6028.26605  B =    532.47027  C =    489.25491 [MHz]
  Nuclear repulsion =  282.720611017753811

  Charge       = 0
  Multiplicity = 1
  Electrons    = 60
  Nalpha       = 30
  Nbeta        = 30

  ==> Algorithm <==

  SCF Algorithm Type is DF.
  DIIS enabled.
  MOM disabled.
  Fractional occupation disabled.
  Guess Type is SAD.
  Energy threshold   = 1.00e-08
  Density threshold  = 1.00e-08
  Integral threshold = 1.00e-12

  ==> Primary Basis <==

  Basis Set: THIS_BASIS
    Blend: DEF2-QZVP
    Number of shells: 184
    Number of basis functions: 592
    Number of Cartesian functions: 728
    Spherical Harmonics?: true
    Max angular momentum: 4

   => Loading Basis Set <=

    Name: (THIS_BASIS AUX)
    Role: JKFIT
    Keyword: DF_BASIS_SCF
    atoms 1, 3-4, 11-13 entry H          line    18 file /home/vance/anaconda3/envs/p4env/share/psi4/basis/def2-universal-jkfit.gbs 
    atoms 2             entry CL         line   986 file /home/vance/anaconda3/envs/p4env/share/psi4/basis/def2-universal-jkfit.gbs 
    atoms 5-7, 9-10     entry C          line   198 file /home/vance/anaconda3/envs/p4env/share/psi4/basis/def2-universal-jkfit.gbs 
    atoms 8             entry N          line   258 file /home/vance/anaconda3/envs/p4env/share/psi4/basis/def2-universal-jkfit.gbs 

  ==> Integral Setup <==

  ==> DiskDFJK: Density-Fitted J/K Matrices <==

    J tasked:                  Yes
    K tasked:                  Yes
    wK tasked:                  No
    OpenMP threads:              4
    Integrals threads:           4
    Memory [MiB]:             5722
    Algorithm:                Core
    Integral Cache:           SAVE
    Schwarz Cutoff:          1E-12
    Fitting Condition:       1E-10

   => Auxiliary Basis Set <=

  Basis Set: (THIS_BASIS AUX)
    Blend: DEF2-UNIVERSAL-JKFIT
    Number of shells: 224
    Number of basis functions: 688
    Number of Cartesian functions: 813
    Spherical Harmonics?: true
    Max angular momentum: 4

  Minimum eigenvalue in the overlap matrix is 2.0176483735E-05.
  Reciprocal condition number of the overlap matrix is 1.8280415474E-06.
    Using symmetric orthogonalization.

  ==> Pre-Iterations <==

  SCF Guess: Superposition of Atomic Densities via on-the-fly atomic UHF (no occupation information).

   -------------------------
    Irrep   Nso     Nmo    
   -------------------------
     A        592     592 
   -------------------------
    Total     592     592
   -------------------------

  ==> Iterations <==

                           Total Energy        Delta E     RMS |[F,P]|

   @DF-RHF iter SAD:  -706.11226802537158   -7.06112e+02   0.00000e+00 
   @DF-RHF iter   1:  -706.74230138114535   -6.30033e-01   9.04976e-04 DIIS/ADIIS
   @DF-RHF iter   2:  -706.87756361851802   -1.35262e-01   4.10217e-04 DIIS/ADIIS
   @DF-RHF iter   3:  -706.90379223998798   -2.62286e-02   7.95375e-05 DIIS
   @DF-RHF iter   4:  -706.90550330816814   -1.71107e-03   2.47053e-05 DIIS
   @DF-RHF iter   5:  -706.90562633148943   -1.23023e-04   8.46583e-06 DIIS
   @DF-RHF iter   6:  -706.90564500788548   -1.86764e-05   2.84839e-06 DIIS
   @DF-RHF iter   7:  -706.90564764530382   -2.63742e-06   8.87681e-07 DIIS
   @DF-RHF iter   8:  -706.90564797714171   -3.31838e-07   2.95790e-07 DIIS
   @DF-RHF iter   9:  -706.90564801467553   -3.75338e-08   1.07690e-07 DIIS
   @DF-RHF iter  10:  -706.90564802074664   -6.07110e-09   4.84668e-08 DIIS
   @DF-RHF iter  11:  -706.90564802305357   -2.30693e-09   2.04939e-08 DIIS
   @DF-RHF iter  12:  -706.90564802348354   -4.29964e-10   4.56251e-09 DIIS
  Energy and wave function converged.


  ==> Post-Iterations <==

    Orbital Energies [Eh]
    ---------------------

    Doubly Occupied:                                                      

       1A   -104.837741     2A    -15.570757     3A    -11.280547  
       4A    -11.280529     5A    -11.264531     6A    -11.246989  
       7A    -11.246934     8A    -10.561214     9A     -8.028275  
      10A     -8.026768    11A     -8.026765    12A     -1.268623  
      13A     -1.096382    14A     -1.086780    15A     -1.044788  
      16A     -0.866533    17A     -0.865980    18A     -0.731556  
      19A     -0.670719    20A     -0.661494    21A     -0.609965  
      22A     -0.591228    23A     -0.583024    24A     -0.552235  
      25A     -0.530697    26A     -0.460842    27A     -0.460737  
      28A     -0.424502    29A     -0.391872    30A     -0.357027  

    Virtual:                                                              

      31A      0.091783    32A      0.094691    33A      0.106958  
      34A      0.109463    35A      0.117339    36A      0.138485  
      37A      0.147779    38A      0.171468    39A      0.197017  
      40A      0.203569    41A      0.216423    42A      0.220684  
      43A      0.233002    44A      0.236576    45A      0.248675  
      46A      0.252674    47A      0.261220    48A      0.262868  
      49A      0.289814    50A      0.295791    51A      0.298876  
      52A      0.311233    53A      0.325384    54A      0.359775  
      55A      0.367833    56A      0.377566    57A      0.389959  
      58A      0.402891    59A      0.411852    60A      0.420644  
      61A      0.439762    62A      0.444571    63A      0.451659  
      64A      0.457814    65A      0.472987    66A      0.478879  
      67A      0.486026    68A      0.498901    69A      0.501557  
      70A      0.508437    71A      0.508857    72A      0.514842  
      73A      0.532641    74A      0.544801    75A      0.559319  
      76A      0.564920    77A      0.592612    78A      0.615353  
      79A      0.631742    80A      0.645695    81A      0.662559  
      82A      0.680412    83A      0.682619    84A      0.688552  
      85A      0.708517    86A      0.729864    87A      0.779246  
      88A      0.786101    89A      0.791454    90A      0.805946  
      91A      0.815268    92A      0.839488    93A      0.843627  
      94A      0.858468    95A      0.870697    96A      0.872676  
      97A      0.896398    98A      0.901166    99A      0.915204  
     100A      0.916098   101A      0.918580   102A      0.938172  
     103A      0.947342   104A      0.950433   105A      0.952173  
     106A      0.988175   107A      0.988245   108A      1.024298  
     109A      1.038094   110A      1.046883   111A      1.056236  
     112A      1.063951   113A      1.078814   114A      1.092422  
     115A      1.100902   116A      1.107226   117A      1.108550  
     118A      1.119579   119A      1.133848   120A      1.169743  
     121A      1.174788   122A      1.177260   123A      1.203165  
     124A      1.222025   125A      1.226004   126A      1.252777  
     127A      1.258301   128A      1.287182   129A      1.298230  
     130A      1.306319   131A      1.321641   132A      1.327027  
     133A      1.335323   134A      1.339456   135A      1.345126  
     136A      1.352060   137A      1.381171   138A      1.391735  
     139A      1.401006   140A      1.414065   141A      1.418658  
     142A      1.426756   143A      1.429512   144A      1.431102  
     145A      1.432880   146A      1.462395   147A      1.507153  
     148A      1.511171   149A      1.523196   150A      1.523672  
     151A      1.570206   152A      1.575021   153A      1.575024  
     154A      1.584825   155A      1.591745   156A      1.665489  
     157A      1.669310   158A      1.695660   159A      1.727623  
     160A      1.747700   161A      1.764963   162A      1.774035  
     163A      1.796999   164A      1.827271   165A      1.838297  
     166A      1.853761   167A      1.862930   168A      1.920763  
     169A      1.929562   170A      1.932382   171A      1.965756  
     172A      1.988737   173A      1.995067   174A      2.007561  
     175A      2.026288   176A      2.040832   177A      2.066865  
     178A      2.068825   179A      2.094515   180A      2.104232  
     181A      2.126706   182A      2.139692   183A      2.175058  
     184A      2.179644   185A      2.185541   186A      2.206184  
     187A      2.215518   188A      2.221237   189A      2.224552  
     190A      2.243642   191A      2.246074   192A      2.257030  
     193A      2.291607   194A      2.307339   195A      2.310597  
     196A      2.312415   197A      2.332350   198A      2.342380  
     199A      2.353529   200A      2.353858   201A      2.380625  
     202A      2.403389   203A      2.414112   204A      2.418985  
     205A      2.437115   206A      2.441821   207A      2.470858  
     208A      2.488129   209A      2.496723   210A      2.501510  
     211A      2.513748   212A      2.523869   213A      2.529996  
     214A      2.553467   215A      2.587997   216A      2.601797  
     217A      2.610180   218A      2.625457   219A      2.671466  
     220A      2.678131   221A      2.689779   222A      2.700739  
     223A      2.703375   224A      2.706006   225A      2.721493  
     226A      2.764411   227A      2.771438   228A      2.771964  
     229A      2.804397   230A      2.808756   231A      2.811513  
     232A      2.829483   233A      2.833201   234A      2.859599  
     235A      2.875040   236A      2.877895   237A      2.895929  
     238A      2.903171   239A      2.903504   240A      2.921530  
     241A      2.925608   242A      2.956569   243A      2.959881  
     244A      2.972193   245A      3.002299   246A      3.052536  
     247A      3.057663   248A      3.064319   249A      3.080190  
     250A      3.084933   251A      3.135477   252A      3.158846  
     253A      3.169087   254A      3.177357   255A      3.220285  
     256A      3.247024   257A      3.257798   258A      3.313389  
     259A      3.323729   260A      3.361626   261A      3.368818  
     262A      3.383660   263A      3.413595   264A      3.480384  
     265A      3.482294   266A      3.523299   267A      3.557070  
     268A      3.590684   269A      3.591059   270A      3.637364  
     271A      3.639449   272A      3.641825   273A      3.652390  
     274A      3.668725   275A      3.672724   276A      3.673655  
     277A      3.687208   278A      3.707522   279A      3.742202  
     280A      3.754578   281A      3.792068   282A      3.804071  
     283A      3.817195   284A      3.827756   285A      3.837537  
     286A      3.847553   287A      3.941322   288A      3.944323  
     289A      3.944325   290A      3.949554   291A      3.975822  
     292A      3.975822   293A      3.976065   294A      3.987083  
     295A      4.051420   296A      4.051681   297A      4.068489  
     298A      4.075439   299A      4.104125   300A      4.179956  
     301A      4.208378   302A      4.221512   303A      4.223000  
     304A      4.234502   305A      4.242662   306A      4.276723  
     307A      4.282366   308A      4.286417   309A      4.291558  
     310A      4.327749   311A      4.327756   312A      4.330996  
     313A      4.337143   314A      4.362432   315A      4.362524  
     316A      4.370422   317A      4.373020   318A      4.443371  
     319A      4.490699   320A      4.501377   321A      4.533587  
     322A      4.542597   323A      4.546845   324A      4.695053  
     325A      4.802831   326A      4.831782   327A      4.838173  
     328A      4.845310   329A      4.848028   330A      4.910769  
     331A      4.945283   332A      4.972698   333A      5.058742  
     334A      5.065077   335A      5.068282   336A      5.164892  
     337A      5.171740   338A      5.208497   339A      5.265064  
     340A      5.265495   341A      5.272134   342A      5.405193  
     343A      5.409304   344A      5.419161   345A      5.428131  
     346A      5.465863   347A      5.538595   348A      5.587073  
     349A      5.598574   350A      5.603558   351A      5.643166  
     352A      5.684509   353A      5.689110   354A      5.724197  
     355A      5.730474   356A      5.775453   357A      5.786161  
     358A      5.811324   359A      5.849229   360A      5.861719  
     361A      5.889755   362A      5.892172   363A      5.899554  
     364A      5.989962   365A      5.993981   366A      6.000769  
     367A      6.006331   368A      6.068200   369A      6.097002  
     370A      6.097013   371A      6.099645   372A      6.112033  
     373A      6.141448   374A      6.191939   375A      6.201060  
     376A      6.222619   377A      6.257182   378A      6.272698  
     379A      6.314062   380A      6.326644   381A      6.339609  
     382A      6.356631   383A      6.363995   384A      6.392024  
     385A      6.400826   386A      6.420816   387A      6.434095  
     388A      6.442946   389A      6.454487   390A      6.490304  
     391A      6.510317   392A      6.513266   393A      6.526690  
     394A      6.529410   395A      6.543175   396A      6.546058  
     397A      6.550283   398A      6.569270   399A      6.611909  
     400A      6.611972   401A      6.623004   402A      6.647801  
     403A      6.649085   404A      6.656660   405A      6.661768  
     406A      6.668953   407A      6.678226   408A      6.682776  
     409A      6.713393   410A      6.755391   411A      6.767335  
     412A      6.791701   413A      6.816005   414A      6.823779  
     415A      6.843616   416A      6.884887   417A      6.909848  
     418A      6.926783   419A      6.934400   420A      6.988835  
     421A      7.017617   422A      7.040214   423A      7.047685  
     424A      7.062968   425A      7.070655   426A      7.096452  
     427A      7.123387   428A      7.170414   429A      7.178461  
     430A      7.179070   431A      7.193849   432A      7.196704  
     433A      7.252003   434A      7.274228   435A      7.278302  
     436A      7.327503   437A      7.411063   438A      7.412149  
     439A      7.424817   440A      7.431906   441A      7.441572  
     442A      7.471869   443A      7.515076   444A      7.528174  
     445A      7.563300   446A      7.606783   447A      7.627782  
     448A      7.672879   449A      7.699802   450A      7.775884  
     451A      7.798642   452A      7.827045   453A      7.838929  
     454A      7.840006   455A      7.866336   456A      7.890049  
     457A      7.898055   458A      7.911947   459A      7.954459  
     460A      7.959375   461A      7.998244   462A      8.020613  
     463A      8.049664   464A      8.104253   465A      8.107313  
     466A      8.127876   467A      8.128600   468A      8.180461  
     469A      8.187203   470A      8.217956   471A      8.220151  
     472A      8.221009   473A      8.230979   474A      8.316283  
     475A      8.319140   476A      8.326756   477A      8.341574  
     478A      8.344079   479A      8.357705   480A      8.364883  
     481A      8.387717   482A      8.393881   483A      8.427200  
     484A      8.487538   485A      8.495711   486A      8.503433  
     487A      8.503869   488A      8.514715   489A      8.525428  
     490A      8.616257   491A      8.644677   492A      8.695241  
     493A      8.696318   494A      8.697880   495A      8.732429  
     496A      8.739317   497A      8.755491   498A      8.756620  
     499A      8.769732   500A      8.784738   501A      8.787448  
     502A      8.791111   503A      8.799628   504A      8.825791  
     505A      8.870008   506A      8.897370   507A      8.905938  
     508A      8.929091   509A      8.974034   510A      8.981905  
     511A      9.021092   512A      9.035526   513A      9.097234  
     514A      9.097826   515A      9.123857   516A      9.136557  
     517A      9.160741   518A      9.195611   519A      9.212213  
     520A      9.215275   521A      9.329905   522A      9.385179  
     523A      9.447989   524A      9.534775   525A      9.576871  
     526A      9.586458   527A      9.618975   528A      9.694932  
     529A      9.724595   530A      9.827158   531A      9.833059  
     532A      9.965837   533A      9.968530   534A     10.071020  
     535A     10.141363   536A     10.147824   537A     10.188371  
     538A     10.203646   539A     10.241939   540A     10.264865  
     541A     10.279883   542A     10.343843   543A     10.344355  
     544A     10.360437   545A     10.471124   546A     10.503947  
     547A     10.564844   548A     10.589516   549A     10.622786  
     550A     10.694061   551A     10.736956   552A     10.755711  
     553A     10.854443   554A     10.939069   555A     11.041304  
     556A     11.187120   557A     11.196185   558A     11.288337  
     559A     11.288462   560A     11.297083   561A     11.372160  
     562A     11.374731   563A     11.470678   564A     11.540960  
     565A     11.884085   566A     12.223657   567A     12.225510  
     568A     12.527552   569A     12.552233   570A     12.841905  
     571A     13.135641   572A     13.151076   573A     13.415438  
     574A     13.666643   575A     28.973630   576A     29.491409  
     577A     29.639008   578A     29.753915   579A     29.997920  
     580A     30.196549   581A     38.815471   582A     43.285914  
     583A     43.286520   584A     43.423426   585A    100.169137  
     586A    149.548707   587A    150.047989   588A    150.175855  
     589A    150.533642   590A    150.751164   591A    199.929571  
     592A    530.363163  

    Final Occupation by Irrep:
              A 
    DOCC [    30 ]
    NA   [    30 ]
    NB   [    30 ]

  @DF-RHF Final Energy:  -706.90564802348354

   => Energetics <=

    Nuclear Repulsion Energy =            282.7206110177538108
    One-Electron Energy =               -1530.0004558008281492
    Two-Electron Energy =                 540.3741967595908591
    Total Energy =                       -706.9056480234835362

Computation Completed


Properties will be evaluated at   0.000000,   0.000000,   0.000000 [a0]

Properties computed using the SCF density matrix


 Multipole Moments:

 ------------------------------------------------------------------------------------
     Multipole            Electronic (a.u.)      Nuclear  (a.u.)        Total (a.u.)
 ------------------------------------------------------------------------------------

 L = 1.  Multiply by 2.5417464519 to convert [e a0] to [Debye]
 Dipole X            :          0.0000000           -0.0000000            0.0000000
 Dipole Y            :          0.0000000           -0.0000000            0.0000000
 Dipole Z            :         10.4140970          -12.0107342           -1.5966372
 Magnitude           :                                                    1.5966372

 ------------------------------------------------------------------------------------

*** tstop() called on cmpsrv002 at Thu Sep 19 14:33:18 2024
Module time:
	user time   =      48.65 seconds =       0.81 minutes
	system time =       6.69 seconds =       0.11 minutes
	total time  =       1035 seconds =      17.25 minutes
Total time:
	user time   =      48.65 seconds =       0.81 minutes
	system time =       6.69 seconds =       0.11 minutes
	total time  =       1035 seconds =      17.25 minutes
   => Libint2 <=

    Primary   basis highest AM E, G, H:  6, 6, 3
    Auxiliary basis highest AM E, G, H:  7, 7, 4
    Onebody   basis highest AM E, G, H:  -, -, -
    Solid Harmonics ordering:            Gaussian

*** tstart() called on cmpsrv002
*** at Thu Sep 19 14:33:18 2024

   => Loading Basis Set <=

    Name: THIS_BASIS
    Role: ORBITAL
    Keyword: BASIS
    atoms 1, 3-4, 11-13 entry H          line    15 file /home/vance/anaconda3/envs/p4env/share/psi4/basis/def2-qzvp.gbs 
    atoms 2             entry CL         line   809 file /home/vance/anaconda3/envs/p4env/share/psi4/basis/def2-qzvp.gbs 
    atoms 5-7, 9-10     entry C          line   194 file /home/vance/anaconda3/envs/p4env/share/psi4/basis/def2-qzvp.gbs 
    atoms 8             entry N          line   242 file /home/vance/anaconda3/envs/p4env/share/psi4/basis/def2-qzvp.gbs 


         ---------------------------------------------------------
                       SAPT(DFT): delta HF Monomer A               
         ---------------------------------------------------------
                                   SCF
               by Justin Turney, Rob Parrish, Andy Simmonett
                          and Daniel G. A. Smith
                              RHF Reference
                        4 Threads,   7629 MiB Core
         ---------------------------------------------------------

  ==> Geometry <==

    Molecular point group: c1
    Full point group: C2v

    Geometry (in Angstrom), charge = 0, multiplicity = 1:

       Center              X                  Y                   Z               Mass       
    ------------   -----------------  -----------------  -----------------  -----------------
         H            0.000000000000     0.000000000000     2.729162886190     1.007825032230
         CL           0.000000000000     0.000000000000     4.096622886190    34.968852682000
      Gh(H)           0.000000000000    -2.147710000000    -3.050977113810     1.007825032230
      Gh(H)           0.000000000000    -2.051420000000    -0.557447113810     1.007825032230
      Gh(C)           0.000000000000     0.000000000000    -3.244777113810    12.000000000000
      Gh(C)           0.000000000000    -1.196400000000    -2.540657113810    12.000000000000
      Gh(C)           0.000000000000    -1.149310000000    -1.154727113810    12.000000000000
      Gh(N)           0.000000000000     0.000000000000    -0.481727113810    14.003074004430
      Gh(C)          -0.000000000000     1.149310000000    -1.154727113810    12.000000000000
      Gh(C)          -0.000000000000     1.196400000000    -2.540657113810    12.000000000000
      Gh(H)          -0.000000000000     2.051420000000    -0.557447113810     1.007825032230
      Gh(H)          -0.000000000000     2.147710000000    -3.050977113810     1.007825032230
      Gh(H)           0.000000000000     0.000000000000    -4.325347113810     1.007825032230

  Running in c1 symmetry.

  Rotational constants: A =      0.20108  B =      0.01776  C =      0.01632 [cm^-1]
  Rotational constants: A =   6028.26605  B =    532.47027  C =    489.25491 [MHz]
  Nuclear repulsion =    6.578629416136488

  Charge       = 0
  Multiplicity = 1
  Electrons    = 18
  Nalpha       = 9
  Nbeta        = 9

  ==> Algorithm <==

  SCF Algorithm Type is DF.
  DIIS enabled.
  MOM disabled.
  Fractional occupation disabled.
  Guess Type is SAD.
  Energy threshold   = 1.00e-08
  Density threshold  = 1.00e-08
  Integral threshold = 1.00e-12

  ==> Primary Basis <==

  Basis Set: THIS_BASIS
    Blend: DEF2-QZVP
    Number of shells: 184
    Number of basis functions: 592
    Number of Cartesian functions: 728
    Spherical Harmonics?: true
    Max angular momentum: 4

   => Loading Basis Set <=

    Name: (THIS_BASIS AUX)
    Role: JKFIT
    Keyword: DF_BASIS_SCF
    atoms 1, 3-4, 11-13 entry H          line    18 file /home/vance/anaconda3/envs/p4env/share/psi4/basis/def2-universal-jkfit.gbs 
    atoms 2             entry CL         line   986 file /home/vance/anaconda3/envs/p4env/share/psi4/basis/def2-universal-jkfit.gbs 
    atoms 5-7, 9-10     entry C          line   198 file /home/vance/anaconda3/envs/p4env/share/psi4/basis/def2-universal-jkfit.gbs 
    atoms 8             entry N          line   258 file /home/vance/anaconda3/envs/p4env/share/psi4/basis/def2-universal-jkfit.gbs 

  ==> Integral Setup <==

  ==> DiskDFJK: Density-Fitted J/K Matrices <==

    J tasked:                  Yes
    K tasked:                  Yes
    wK tasked:                  No
    OpenMP threads:              4
    Integrals threads:           4
    Memory [MiB]:             5722
    Algorithm:                Core
    Integral Cache:           SAVE
    Schwarz Cutoff:          1E-12
    Fitting Condition:       1E-10

   => Auxiliary Basis Set <=

  Basis Set: (THIS_BASIS AUX)
    Blend: DEF2-UNIVERSAL-JKFIT
    Number of shells: 224
    Number of basis functions: 688
    Number of Cartesian functions: 813
    Spherical Harmonics?: true
    Max angular momentum: 4

  Minimum eigenvalue in the overlap matrix is 2.0176483735E-05.
  Reciprocal condition number of the overlap matrix is 1.8280415474E-06.
    Using symmetric orthogonalization.

  ==> Pre-Iterations <==

  SCF Guess: Superposition of Atomic Densities via on-the-fly atomic UHF (no occupation information).

   -------------------------
    Irrep   Nso     Nmo    
   -------------------------
     A        592     592 
   -------------------------
    Total     592     592
   -------------------------

  ==> Iterations <==

                           Total Energy        Delta E     RMS |[F,P]|

   @DF-RHF iter SAD:  -459.85762122622259   -4.59858e+02   0.00000e+00 
   @DF-RHF iter   1:  -460.08212244220931   -2.24501e-01   3.75563e-04 DIIS/ADIIS
   @DF-RHF iter   2:  -460.10306162487080   -2.09392e-02   1.60537e-04 DIIS/ADIIS
   @DF-RHF iter   3:  -460.10611007231279   -3.04845e-03   2.76450e-05 DIIS
   @DF-RHF iter   4:  -460.10647320547457   -3.63133e-04   8.82024e-06 DIIS
   @DF-RHF iter   5:  -460.10651967468198   -4.64692e-05   1.53534e-06 DIIS
   @DF-RHF iter   6:  -460.10652085366610   -1.17898e-06   3.30805e-07 DIIS
   @DF-RHF iter   7:  -460.10652087625522   -2.25891e-08   6.98882e-08 DIIS
   @DF-RHF iter   8:  -460.10652087809774   -1.84252e-09   1.39445e-08 DIIS
   @DF-RHF iter   9:  -460.10652087817431   -7.65681e-11   2.10543e-09 DIIS
  Energy and wave function converged.


  ==> Post-Iterations <==

    Orbital Energies [Eh]
    ---------------------

    Doubly Occupied:                                                      

       1A   -104.852927     2A    -10.576216     3A     -8.043274  
       4A     -8.041692     5A     -8.041692     6A     -1.101067  
       7A     -0.605808     8A     -0.474540     9A     -0.474529  

    Virtual:                                                              

      10A      0.041416    11A      0.071494    12A      0.084528  
      13A      0.118854    14A      0.129725    15A      0.133253  
      16A      0.155131    17A      0.172536    18A      0.193296  
      19A      0.194262    20A      0.205659    21A      0.227287  
      22A      0.229377    23A      0.230369    24A      0.254391  
      25A      0.261920    26A      0.265401    27A      0.273913  
      28A      0.284724    29A      0.296130    30A      0.296223  
      31A      0.299513    32A      0.333821    33A      0.344481  
      34A      0.358436    35A      0.361909    36A      0.375901  
      37A      0.382771    38A      0.410608    39A      0.422037  
      40A      0.425803    41A      0.427335    42A      0.438209  
      43A      0.452992    44A      0.471716    45A      0.495907  
      46A      0.495934    47A      0.524769    48A      0.527783  
      49A      0.559126    50A      0.577011    51A      0.590343  
      52A      0.592033    53A      0.604208    54A      0.617719  
      55A      0.633458    56A      0.635521    57A      0.664027  
      58A      0.670850    59A      0.691072    60A      0.703921  
      61A      0.731554    62A      0.750531    63A      0.751580  
      64A      0.767063    65A      0.772237    66A      0.788131  
      67A      0.814715    68A      0.817964    69A      0.820840  
      70A      0.823323    71A      0.831101    72A      0.841319  
      73A      0.851198    74A      0.870907    75A      0.884406  
      76A      0.895724    77A      0.917334    78A      0.939483  
      79A      0.951020    80A      0.961239    81A      0.962304  
      82A      1.009049    83A      1.013206    84A      1.049976  
      85A      1.056648    86A      1.060483    87A      1.063982  
      88A      1.075846    89A      1.085316    90A      1.094908  
      91A      1.133256    92A      1.152477    93A      1.172770  
      94A      1.175570    95A      1.177983    96A      1.184329  
      97A      1.206488    98A      1.227501    99A      1.273481  
     100A      1.294440   101A      1.299190   102A      1.301285  
     103A      1.301373   104A      1.311937   105A      1.329963  
     106A      1.344698   107A      1.358718   108A      1.379600  
     109A      1.380292   110A      1.388674   111A      1.391742  
     112A      1.406351   113A      1.416470   114A      1.417851  
     115A      1.418048   116A      1.454375   117A      1.474808  
     118A      1.479021   119A      1.483511   120A      1.494041  
     121A      1.498464   122A      1.509270   123A      1.509420  
     124A      1.527889   125A      1.562313   126A      1.562328  
     127A      1.576573   128A      1.583901   129A      1.605625  
     130A      1.616156   131A      1.617572   132A      1.625283  
     133A      1.653997   134A      1.694936   135A      1.696284  
     136A      1.741347   137A      1.753997   138A      1.758447  
     139A      1.767734   140A      1.789495   141A      1.813612  
     142A      1.830303   143A      1.845312   144A      1.868656  
     145A      1.870610   146A      1.895930   147A      1.942753  
     148A      1.966248   149A      1.977554   150A      1.995474  
     151A      2.048762   152A      2.074923   153A      2.079803  
     154A      2.123918   155A      2.154729   156A      2.183108  
     157A      2.189397   158A      2.265956   159A      2.292437  
     160A      2.293392   161A      2.327518   162A      2.336010  
     163A      2.354145   164A      2.377970   165A      2.383953  
     166A      2.386205   167A      2.404721   168A      2.437115  
     169A      2.443319   170A      2.446226   171A      2.450385  
     172A      2.472022   173A      2.499964   174A      2.504426  
     175A      2.510592   176A      2.521923   177A      2.524515  
     178A      2.545745   179A      2.567639   180A      2.571135  
     181A      2.573490   182A      2.575426   183A      2.578806  
     184A      2.598003   185A      2.598221   186A      2.614413  
     187A      2.616239   188A      2.625305   189A      2.625970  
     190A      2.645022   191A      2.651837   192A      2.682938  
     193A      2.687724   194A      2.710569   195A      2.713933  
     196A      2.743355   197A      2.774755   198A      2.799044  
     199A      2.801585   200A      2.809377   201A      2.831261  
     202A      2.850375   203A      2.856686   204A      2.862468  
     205A      2.863557   206A      2.887985   207A      2.905016  
     208A      2.906669   209A      2.913068   210A      2.937989  
     211A      2.938432   212A      2.950837   213A      2.975630  
     214A      2.991185   215A      2.991586   216A      3.002433  
     217A      3.031401   218A      3.042224   219A      3.065967  
     220A      3.099829   221A      3.103001   222A      3.110652  
     223A      3.156075   224A      3.188381   225A      3.196913  
     226A      3.202875   227A      3.208167   228A      3.215602  
     229A      3.239262   230A      3.255982   231A      3.264557  
     232A      3.299962   233A      3.355211   234A      3.371107  
     235A      3.390873   236A      3.418544   237A      3.433751  
     238A      3.478491   239A      3.520061   240A      3.532263  
     241A      3.540752   242A      3.568537   243A      3.576726  
     244A      3.576984   245A      3.577942   246A      3.619693  
     247A      3.641528   248A      3.645474   249A      3.654897  
     250A      3.659468   251A      3.694771   252A      3.729299  
     253A      3.763384   254A      3.787965   255A      3.808215  
     256A      3.823288   257A      3.839259   258A      3.880426  
     259A      3.917632   260A      3.930398   261A      3.930400  
     262A      3.936269   263A      3.962514   264A      3.962514  
     265A      4.036485   266A      4.036661   267A      4.038976  
     268A      4.046831   269A      4.052811   270A      4.149325  
     271A      4.153852   272A      4.186148   273A      4.199720  
     274A      4.220000   275A      4.239219   276A      4.252127  
     277A      4.254500   278A      4.266724   279A      4.269559  
     280A      4.314116   281A      4.314124   282A      4.318693  
     283A      4.322013   284A      4.344465   285A      4.348160  
     286A      4.348209   287A      4.417424   288A      4.467792  
     289A      4.471095   290A      4.489933   291A      4.503079  
     292A      4.566824   293A      4.652955   294A      4.686654  
     295A      4.688949   296A      4.744789   297A      4.781220  
     298A      4.814133   299A      4.827743   300A      4.829183  
     301A      4.832445   302A      4.898798   303A      4.904701  
     304A      4.954202   305A      5.019984   306A      5.024562  
     307A      5.066231   308A      5.068650   309A      5.216902  
     310A      5.252692   311A      5.367815   312A      5.413402  
     313A      5.542012   314A      5.592807   315A      5.672016  
     316A      5.709215   317A      5.752358   318A      5.829266  
     319A      5.833645   320A      5.888785   321A      5.895385  
     322A      5.896315   323A      5.949668   324A      5.969832  
     325A      5.976298   326A      6.019552   327A      6.021859  
     328A      6.037263   329A      6.043374   330A      6.049515  
     331A      6.079494   332A      6.079514   333A      6.086261  
     334A      6.097350   335A      6.128907   336A      6.160853  
     337A      6.170189   338A      6.203329   339A      6.248219  
     340A      6.263919   341A      6.290427   342A      6.334076  
     343A      6.380278   344A      6.407072   345A      6.426331  
     346A      6.429848   347A      6.466585   348A      6.488830  
     349A      6.522581   350A      6.570950   351A      6.576957  
     352A      6.579088   353A      6.581258   354A      6.593848  
     355A      6.593978   356A      6.611904   357A      6.629695  
     358A      6.668420   359A      6.728539   360A      6.751759  
     361A      6.754019   362A      6.828429   363A      6.843491  
     364A      6.855190   365A      6.866400   366A      6.881315  
     367A      6.897274   368A      6.926601   369A      6.943641  
     370A      6.965840   371A      6.999414   372A      7.020421  
     373A      7.033729   374A      7.042868   375A      7.059247  
     376A      7.063130   377A      7.070946   378A      7.099464  
     379A      7.126221   380A      7.144915   381A      7.146246  
     382A      7.185567   383A      7.247327   384A      7.259790  
     385A      7.259973   386A      7.278657   387A      7.287674  
     388A      7.297825   389A      7.333223   390A      7.393092  
     391A      7.393408   392A      7.427418   393A      7.442166  
     394A      7.463962   395A      7.500385   396A      7.566335  
     397A      7.617346   398A      7.662777   399A      7.667472  
     400A      7.668116   401A      7.672916   402A      7.672995  
     403A      7.684847   404A      7.721698   405A      7.767122  
     406A      7.792418   407A      7.800222   408A      7.835238  
     409A      7.841777   410A      7.879506   411A      7.937007  
     412A      7.961188   413A      8.009028   414A      8.019914  
     415A      8.034994   416A      8.074028   417A      8.083761  
     418A      8.169896   419A      8.190673   420A      8.203760  
     421A      8.204397   422A      8.217923   423A      8.248235  
     424A      8.298670   425A      8.305663   426A      8.314686  
     427A      8.324992   428A      8.342480   429A      8.352541  
     430A      8.362835   431A      8.377747   432A      8.418737  
     433A      8.430540   434A      8.439334   435A      8.468220  
     436A      8.494933   437A      8.529923   438A      8.541764  
     439A      8.544389   440A      8.627888   441A      8.638376  
     442A      8.641332   443A      8.670109   444A      8.672570  
     445A      8.698494   446A      8.736649   447A      8.739503  
     448A      8.772690   449A      8.774081   450A      8.817861  
     451A      8.836834   452A      8.865906   453A      8.912778  
     454A      8.927349   455A      8.949250   456A      8.951907  
     457A      8.961520   458A      8.974021   459A      8.975158  
     460A      8.985320   461A      9.034927   462A      9.035950  
     463A      9.066154   464A      9.079189   465A      9.104204  
     466A      9.126424   467A      9.140675   468A      9.141306  
     469A      9.144190   470A      9.153351   471A      9.165056  
     472A      9.193816   473A      9.214098   474A      9.263411  
     475A      9.265178   476A      9.275281   477A      9.297966  
     478A      9.317951   479A      9.346748   480A      9.383108  
     481A      9.406234   482A      9.445397   483A      9.462600  
     484A      9.496705   485A      9.511651   486A      9.553097  
     487A      9.567523   488A      9.599663   489A      9.640210  
     490A      9.649744   491A      9.696558   492A      9.767882  
     493A      9.819025   494A      9.839161   495A      9.940260  
     496A      9.998900   497A     10.004439   498A     10.017522  
     499A     10.033847   500A     10.050386   501A     10.201459  
     502A     10.238444   503A     10.322772   504A     10.336006  
     505A     10.357314   506A     10.376133   507A     10.439272  
     508A     10.454633   509A     10.461224   510A     10.535314  
     511A     10.568805   512A     10.613876   513A     10.619747  
     514A     10.628535   515A     10.656797   516A     10.700827  
     517A     10.743807   518A     10.776050   519A     10.876946  
     520A     10.880857   521A     10.948984   522A     11.001096  
     523A     11.011864   524A     11.111584   525A     11.111776  
     526A     11.182393   527A     11.207777   528A     11.234550  
     529A     11.273971   530A     11.274103   531A     11.350388  
     532A     11.357230   533A     11.362082   534A     11.371408  
     535A     11.405325   536A     11.500749   537A     11.528328  
     538A     11.719253   539A     11.766530   540A     11.789643  
     541A     11.805476   542A     11.849590   543A     11.868498  
     544A     12.015725   545A     12.149320   546A     12.158602  
     547A     12.265292   548A     12.355455   549A     12.383787  
     550A     12.416838   551A     12.629296   552A     12.701352  
     553A     13.169989   554A     13.207832   555A     13.385964  
     556A     13.554925   557A     13.603629   558A     13.942007  
     559A     13.979066   560A     14.084465   561A     14.167680  
     562A     14.633078   563A     14.737059   564A     15.043446  
     565A     15.432476   566A     15.771438   567A     16.097839  
     568A     17.105644   569A     18.554394   570A     19.140514  
     571A     19.198028   572A     19.503492   573A     19.570348  
     574A     24.663266   575A     29.739043   576A     43.270915  
     577A     43.271525   578A     43.408284   579A     51.543876  
     580A     51.969017   581A     52.090777   582A     52.379992  
     583A     52.549296   584A     69.854699   585A    100.154077  
     586A    236.236288   587A    236.752101   588A    236.889031  
     589A    237.247198   590A    237.466920   591A    318.038118  
     592A    530.348019  

    Final Occupation by Irrep:
              A 
    DOCC [     9 ]
    NA   [     9 ]
    NB   [     9 ]

  @DF-RHF Final Energy:  -460.10652087817431

   => Energetics <=

    Nuclear Repulsion Energy =              6.5786294161364882
    One-Electron Energy =                -648.9468091225927537
    Two-Electron Energy =                 182.2616588282820089
    Total Energy =                       -460.1065208781743081

Computation Completed


Properties will be evaluated at   0.000000,   0.000000,   0.000000 [a0]

Properties computed using the SCF density matrix


 Multipole Moments:

 ------------------------------------------------------------------------------------
     Multipole            Electronic (a.u.)      Nuclear  (a.u.)        Total (a.u.)
 ------------------------------------------------------------------------------------

 L = 1.  Multiply by 2.5417464519 to convert [e a0] to [Debye]
 Dipole X            :         -0.0000000            0.0000000           -0.0000000
 Dipole Y            :          0.0000000            0.0000000            0.0000000
 Dipole Z            :       -137.2799936          136.7627904           -0.5172032
 Magnitude           :                                                    0.5172032

 ------------------------------------------------------------------------------------

*** tstop() called on cmpsrv002 at Thu Sep 19 14:51:47 2024
Module time:
	user time   =      39.34 seconds =       0.66 minutes
	system time =      15.20 seconds =       0.25 minutes
	total time  =       1109 seconds =      18.48 minutes
Total time:
	user time   =      88.00 seconds =       1.47 minutes
	system time =      21.89 seconds =       0.36 minutes
	total time  =       2144 seconds =      35.73 minutes
   => Libint2 <=

    Primary   basis highest AM E, G, H:  6, 6, 3
    Auxiliary basis highest AM E, G, H:  7, 7, 4
    Onebody   basis highest AM E, G, H:  -, -, -
    Solid Harmonics ordering:            Gaussian

*** tstart() called on cmpsrv002
*** at Thu Sep 19 14:51:47 2024

   => Loading Basis Set <=

    Name: THIS_BASIS
    Role: ORBITAL
    Keyword: BASIS
    atoms 1, 3-4, 11-13 entry H          line    15 file /home/vance/anaconda3/envs/p4env/share/psi4/basis/def2-qzvp.gbs 
    atoms 2             entry CL         line   809 file /home/vance/anaconda3/envs/p4env/share/psi4/basis/def2-qzvp.gbs 
    atoms 5-7, 9-10     entry C          line   194 file /home/vance/anaconda3/envs/p4env/share/psi4/basis/def2-qzvp.gbs 
    atoms 8             entry N          line   242 file /home/vance/anaconda3/envs/p4env/share/psi4/basis/def2-qzvp.gbs 


         ---------------------------------------------------------
                       SAPT(DFT): delta HF Monomer B               
         ---------------------------------------------------------
                                   SCF
               by Justin Turney, Rob Parrish, Andy Simmonett
                          and Daniel G. A. Smith
                              RHF Reference
                        4 Threads,   7629 MiB Core
         ---------------------------------------------------------

  ==> Geometry <==

    Molecular point group: c1
    Full point group: C2v

    Geometry (in Angstrom), charge = 0, multiplicity = 1:

       Center              X                  Y                   Z               Mass       
    ------------   -----------------  -----------------  -----------------  -----------------
      Gh(H)           0.000000000000     0.000000000000     2.729162886190     1.007825032230
      Gh(CL)          0.000000000000     0.000000000000     4.096622886190    34.968852682000
         H            0.000000000000    -2.147710000000    -3.050977113810     1.007825032230
         H            0.000000000000    -2.051420000000    -0.557447113810     1.007825032230
         C            0.000000000000     0.000000000000    -3.244777113810    12.000000000000
         C            0.000000000000    -1.196400000000    -2.540657113810    12.000000000000
         C            0.000000000000    -1.149310000000    -1.154727113810    12.000000000000
         N            0.000000000000     0.000000000000    -0.481727113810    14.003074004430
         C           -0.000000000000     1.149310000000    -1.154727113810    12.000000000000
         C           -0.000000000000     1.196400000000    -2.540657113810    12.000000000000
         H           -0.000000000000     2.051420000000    -0.557447113810     1.007825032230
         H           -0.000000000000     2.147710000000    -3.050977113810     1.007825032230
         H            0.000000000000     0.000000000000    -4.325347113810     1.007825032230

  Running in c1 symmetry.

  Rotational constants: A =      0.20108  B =      0.01776  C =      0.01632 [cm^-1]
  Rotational constants: A =   6028.26605  B =    532.47027  C =    489.25491 [MHz]
  Nuclear repulsion =  206.982914488470669

  Charge       = 0
  Multiplicity = 1
  Electrons    = 42
  Nalpha       = 21
  Nbeta        = 21

  ==> Algorithm <==

  SCF Algorithm Type is DF.
  DIIS enabled.
  MOM disabled.
  Fractional occupation disabled.
  Guess Type is SAD.
  Energy threshold   = 1.00e-08
  Density threshold  = 1.00e-08
  Integral threshold = 1.00e-12

  ==> Primary Basis <==

  Basis Set: THIS_BASIS
    Blend: DEF2-QZVP
    Number of shells: 184
    Number of basis functions: 592
    Number of Cartesian functions: 728
    Spherical Harmonics?: true
    Max angular momentum: 4

   => Loading Basis Set <=

    Name: (THIS_BASIS AUX)
    Role: JKFIT
    Keyword: DF_BASIS_SCF
    atoms 1, 3-4, 11-13 entry H          line    18 file /home/vance/anaconda3/envs/p4env/share/psi4/basis/def2-universal-jkfit.gbs 
    atoms 2             entry CL         line   986 file /home/vance/anaconda3/envs/p4env/share/psi4/basis/def2-universal-jkfit.gbs 
    atoms 5-7, 9-10     entry C          line   198 file /home/vance/anaconda3/envs/p4env/share/psi4/basis/def2-universal-jkfit.gbs 
    atoms 8             entry N          line   258 file /home/vance/anaconda3/envs/p4env/share/psi4/basis/def2-universal-jkfit.gbs 

  ==> Integral Setup <==

  ==> DiskDFJK: Density-Fitted J/K Matrices <==

    J tasked:                  Yes
    K tasked:                  Yes
    wK tasked:                  No
    OpenMP threads:              4
    Integrals threads:           4
    Memory [MiB]:             5722
    Algorithm:                Core
    Integral Cache:           SAVE
    Schwarz Cutoff:          1E-12
    Fitting Condition:       1E-10

   => Auxiliary Basis Set <=

  Basis Set: (THIS_BASIS AUX)
    Blend: DEF2-UNIVERSAL-JKFIT
    Number of shells: 224
    Number of basis functions: 688
    Number of Cartesian functions: 813
    Spherical Harmonics?: true
    Max angular momentum: 4

  Minimum eigenvalue in the overlap matrix is 2.0176483735E-05.
  Reciprocal condition number of the overlap matrix is 1.8280415474E-06.
    Using symmetric orthogonalization.

  ==> Pre-Iterations <==

  SCF Guess: Superposition of Atomic Densities via on-the-fly atomic UHF (no occupation information).

   -------------------------
    Irrep   Nso     Nmo    
   -------------------------
     A        592     592 
   -------------------------
    Total     592     592
   -------------------------

  ==> Iterations <==

                           Total Energy        Delta E     RMS |[F,P]|

   @DF-RHF iter SAD:  -246.24944189824365   -2.46249e+02   0.00000e+00 
   @DF-RHF iter   1:  -246.65243680812091   -4.02995e-01   8.31423e-04 DIIS/ADIIS
   @DF-RHF iter   2:  -246.76970733729473   -1.17271e-01   3.85484e-04 DIIS/ADIIS
   @DF-RHF iter   3:  -246.79369932439249   -2.39920e-02   7.67317e-05 DIIS
   @DF-RHF iter   4:  -246.79511489876666   -1.41557e-03   2.42937e-05 DIIS
   @DF-RHF iter   5:  -246.79521479045070   -9.98917e-05   7.13294e-06 DIIS
   @DF-RHF iter   6:  -246.79522597993684   -1.11895e-05   1.71426e-06 DIIS
   @DF-RHF iter   7:  -246.79522687790484   -8.97968e-07   6.44255e-07 DIIS
   @DF-RHF iter   8:  -246.79522701569670   -1.37792e-07   2.89458e-07 DIIS
   @DF-RHF iter   9:  -246.79522706750970   -5.18130e-08   9.35232e-08 DIIS
   @DF-RHF iter  10:  -246.79522707577237   -8.26267e-09   3.16501e-08 DIIS
   @DF-RHF iter  11:  -246.79522707685794   -1.08557e-09   1.81182e-08 DIIS
   @DF-RHF iter  12:  -246.79522707708182   -2.23878e-10   4.15247e-09 DIIS
  Energy and wave function converged.


  ==> Post-Iterations <==

    Orbital Energies [Eh]
    ---------------------

    Doubly Occupied:                                                      

       1A    -15.560428     2A    -11.272198     3A    -11.272180  
       4A    -11.257387     5A    -11.239955     6A    -11.239900  
       7A     -1.259494     8A     -1.088814     9A     -1.037028  
      10A     -0.858505    11A     -0.858382    12A     -0.723760  
      13A     -0.662692    14A     -0.654394    15A     -0.602448  
      16A     -0.575804    17A     -0.543675    18A     -0.523230  
      19A     -0.413589    20A     -0.383625    21A     -0.349732  

    Virtual:                                                              

      22A      0.094481    23A      0.099478    24A      0.109706  
      25A      0.114068    26A      0.121708    27A      0.136735  
      28A      0.151819    29A      0.164831    30A      0.196552  
      31A      0.199324    32A      0.201619    33A      0.209166  
      34A      0.210498    35A      0.234868    36A      0.242104  
      37A      0.242487    38A      0.255372    39A      0.259951  
      40A      0.260611    41A      0.277594    42A      0.297079  
      43A      0.331686    44A      0.354121    45A      0.371805  
      46A      0.372484    47A      0.385650    48A      0.390686  
      49A      0.410524    50A      0.422662    51A      0.431920  
      52A      0.436730    53A      0.471709    54A      0.473393  
      55A      0.479396    56A      0.490312    57A      0.491131  
      58A      0.502222    59A      0.518977    60A      0.537149  
      61A      0.538299    62A      0.562350    63A      0.574539  
      64A      0.600553    65A      0.622831    66A      0.632766  
      67A      0.641359    68A      0.649431    69A      0.686871  
      70A      0.693682    71A      0.695840    72A      0.697151  
      73A      0.709494    74A      0.715382    75A      0.750010  
      76A      0.753665    77A      0.761215    78A      0.761453  
      79A      0.778535    80A      0.791781    81A      0.798401  
      82A      0.813155    83A      0.818611    84A      0.832208  
      85A      0.837501    86A      0.863015    87A      0.879721  
      88A      0.887606    89A      0.902776    90A      0.914893  
      91A      0.923000    92A      0.923200    93A      0.942914  
      94A      0.948351    95A      0.953111    96A      0.954632  
      97A      0.963260    98A      0.967956    99A      0.976913  
     100A      0.977246   101A      1.022461   102A      1.033371  
     103A      1.045173   104A      1.062876   105A      1.067079  
     106A      1.089613   107A      1.091932   108A      1.098136  
     109A      1.113842   110A      1.115588   111A      1.129798  
     112A      1.132722   113A      1.167821   114A      1.175980  
     115A      1.188539   116A      1.208178   117A      1.211623  
     118A      1.239134   119A      1.249155   120A      1.264818  
     121A      1.294681   122A      1.299581   123A      1.310530  
     124A      1.336285   125A      1.347649   126A      1.349756  
     127A      1.359145   128A      1.387984   129A      1.395528  
     130A      1.419570   131A      1.425339   132A      1.435031  
     133A      1.455691   134A      1.517307   135A      1.520376  
     136A      1.593798   137A      1.599106   138A      1.664730  
     139A      1.673229   140A      1.676998   141A      1.715995  
     142A      1.740090   143A      1.760004   144A      1.771775  
     145A      1.772427   146A      1.782569   147A      1.803913  
     148A      1.803929   149A      1.804778   150A      1.845825  
     151A      1.861315   152A      1.869127   153A      1.927396  
     154A      1.935717   155A      1.939444   156A      1.972010  
     157A      1.982570   158A      2.000532   159A      2.002302  
     160A      2.015023   161A      2.029729   162A      2.037372  
     163A      2.048757   164A      2.070296   165A      2.076245  
     166A      2.099817   167A      2.100698   168A      2.102047  
     169A      2.112585   170A      2.123717   171A      2.139240  
     172A      2.185593   173A      2.189066   174A      2.192965  
     175A      2.218363   176A      2.222688   177A      2.228346  
     178A      2.236665   179A      2.251141   180A      2.252035  
     181A      2.264052   182A      2.298936   183A      2.316136  
     184A      2.341296   185A      2.350722   186A      2.356322  
     187A      2.361470   188A      2.389752   189A      2.394180  
     190A      2.399878   191A      2.401790   192A      2.414849  
     193A      2.420985   194A      2.427183   195A      2.430685  
     196A      2.430914   197A      2.444074   198A      2.462226  
     199A      2.495071   200A      2.503912   201A      2.507684  
     202A      2.508390   203A      2.515128   204A      2.519430  
     205A      2.531830   206A      2.540015   207A      2.560902  
     208A      2.602276   209A      2.609170   210A      2.632158  
     211A      2.636663   212A      2.677119   213A      2.690891  
     214A      2.707299   215A      2.710735   216A      2.712827  
     217A      2.723629   218A      2.771483   219A      2.778175  
     220A      2.779237   221A      2.810936   222A      2.812181  
     223A      2.816904   224A      2.829822   225A      2.837623  
     226A      2.846353   227A      2.856003   228A      2.882145  
     229A      2.882337   230A      2.885633   231A      2.887407  
     232A      2.917806   233A      2.931138   234A      2.961387  
     235A      2.967012   236A      2.980854   237A      3.009617  
     238A      3.060229   239A      3.064588   240A      3.072105  
     241A      3.089112   242A      3.092142   243A      3.143562  
     244A      3.176329   245A      3.177059   246A      3.185579  
     247A      3.224762   248A      3.254975   249A      3.256474  
     250A      3.294896   251A      3.300665   252A      3.322352  
     253A      3.331421   254A      3.370419   255A      3.376570  
     256A      3.391494   257A      3.422392   258A      3.489230  
     259A      3.489733   260A      3.532430   261A      3.564497  
     262A      3.645916   263A      3.648071   264A      3.649534  
     265A      3.661546   266A      3.679455   267A      3.695212  
     268A      3.716424   269A      3.762196   270A      3.799543  
     271A      3.811302   272A      3.825009   273A      3.835192  
     274A      3.846662   275A      3.855827   276A      3.948568  
     277A      3.949209   278A      3.974297   279A      3.983402  
     280A      3.994713   281A      4.079681   282A      4.083383  
     283A      4.113514   284A      4.190541   285A      4.215737  
     286A      4.232294   287A      4.233989   288A      4.246978  
     289A      4.298946   290A      4.303553   291A      4.338298  
     292A      4.379612   293A      4.450616   294A      4.498608  
     295A      4.509116   296A      4.538881   297A      4.538883  
     298A      4.541348   299A      4.550110   300A      4.554329  
     301A      4.558883   302A      4.558883   303A      4.675378  
     304A      4.675556   305A      4.708861   306A      4.809732  
     307A      4.841308   308A      4.918008   309A      4.953572  
     310A      5.060497   311A      5.071188   312A      5.075431  
     313A      5.172473   314A      5.178868   315A      5.214278  
     316A      5.253810   317A      5.272320   318A      5.273624  
     319A      5.279361   320A      5.301461   321A      5.303635  
     322A      5.412616   323A      5.415890   324A      5.426580  
     325A      5.435908   326A      5.456709   327A      5.469093  
     328A      5.474330   329A      5.546212   330A      5.594750  
     331A      5.605932   332A      5.610800   333A      5.650434  
     334A      5.692106   335A      5.696343   336A      5.731531  
     337A      5.738571   338A      5.752497   339A      5.783291  
     340A      5.793193   341A      5.808258   342A      5.819521  
     343A      5.824082   344A      5.824089   345A      5.829125  
     346A      5.840246   347A      5.840327   348A      5.857625  
     349A      5.868817   350A      5.897891   351A      5.899494  
     352A      5.907474   353A      5.997191   354A      6.002552  
     355A      6.011122   356A      6.014298   357A      6.076620  
     358A      6.100577   359A      6.107252   360A      6.119874  
     361A      6.149514   362A      6.199819   363A      6.208640  
     364A      6.229970   365A      6.260386   366A      6.267789  
     367A      6.280663   368A      6.321706   369A      6.334106  
     370A      6.347182   371A      6.363404   372A      6.371310  
     373A      6.388751   374A      6.388770   375A      6.400499  
     376A      6.403097   377A      6.403323   378A      6.408508  
     379A      6.428527   380A      6.441385   381A      6.450857  
     382A      6.461801   383A      6.497873   384A      6.517255  
     385A      6.520625   386A      6.534271   387A      6.537067  
     388A      6.550680   389A      6.553799   390A      6.557360  
     391A      6.567746   392A      6.570292   393A      6.582509  
     394A      6.630666   395A      6.654773   396A      6.656930  
     397A      6.665195   398A      6.669885   399A      6.676571  
     400A      6.685691   401A      6.690390   402A      6.707446  
     403A      6.737078   404A      6.765809   405A      6.799187  
     406A      6.819056   407A      6.831031   408A      6.850803  
     409A      6.892265   410A      6.916883   411A      6.934974  
     412A      6.941917   413A      6.996547   414A      7.022559  
     415A      7.022602   416A      7.024781   417A      7.048311  
     418A      7.055749   419A      7.070731   420A      7.078516  
     421A      7.104152   422A      7.130608   423A      7.178003  
     424A      7.187172   425A      7.192528   426A      7.201214  
     427A      7.204445   428A      7.259898   429A      7.292487  
     430A      7.418780   431A      7.419731   432A      7.439312  
     433A      7.448932   434A      7.479132   435A      7.522510  
     436A      7.534918   437A      7.571076   438A      7.611120  
     439A      7.634479   440A      7.681234   441A      7.706845  
     442A      7.783254   443A      7.805602   444A      7.833306  
     445A      7.846176   446A      7.847660   447A      7.872744  
     448A      7.897166   449A      7.904863   450A      7.918088  
     451A      7.961418   452A      7.962087   453A      7.991901  
     454A      8.003833   455A      8.025891   456A      8.026232  
     457A      8.057517   458A      8.088911   459A      8.111831  
     460A      8.115270   461A      8.135379   462A      8.136749  
     463A      8.188664   464A      8.194091   465A      8.224518  
     466A      8.238454   467A      8.327021   468A      8.349054  
     469A      8.351685   470A      8.364624   471A      8.372241  
     472A      8.395660   473A      8.402273   474A      8.434507  
     475A      8.495019   476A      8.502231   477A      8.510389  
     478A      8.510544   479A      8.521846   480A      8.532807  
     481A      8.623517   482A      8.652302   483A      8.702454  
     484A      8.703039   485A      8.704871   486A      8.741138  
     487A      8.746516   488A      8.777299   489A      8.791967  
     490A      8.795058   491A      8.795686   492A      8.801446  
     493A      8.803466   494A      8.807361   495A      8.811318  
     496A      8.840484   497A      8.877320   498A      8.906573  
     499A      8.913438   500A      8.936079   501A      8.982876  
     502A      9.029169   503A      9.042822   504A      9.104308  
     505A      9.106601   506A      9.142530   507A      9.152437  
     508A      9.162476   509A      9.167958   510A      9.203080  
     511A      9.220199   512A      9.222017   513A      9.336828  
     514A      9.394306   515A      9.414023   516A      9.423808  
     517A      9.456147   518A      9.543196   519A      9.584308  
     520A      9.596307   521A      9.628654   522A      9.703222  
     523A      9.733170   524A      9.837918   525A      9.843261  
     526A      9.960000   527A      9.974079   528A      9.976977  
     529A     10.078399   530A     10.148089   531A     10.155239  
     532A     10.195657   533A     10.211293   534A     10.250141  
     535A     10.272703   536A     10.287605   537A     10.351422  
     538A     10.354349   539A     10.478503   540A     10.512113  
     541A     10.574184   542A     10.596871   543A     10.630308  
     544A     10.702176   545A     10.745814   546A     10.763204  
     547A     10.863353   548A     10.948370   549A     11.048482  
     550A     11.196905   551A     11.203243   552A     11.304586  
     553A     11.479267   554A     11.549805   555A     11.926075  
     556A     12.231375   557A     12.236018   558A     12.535737  
     559A     12.561804   560A     12.851072   561A     13.143291  
     562A     13.158592   563A     13.422967   564A     13.673396  
     565A     15.343694   566A     21.699462   567A     21.705064  
     568A     21.729513   569A     21.729612   570A     21.822971  
     571A     21.824359   572A     21.916633   573A     22.441575  
     574A     28.981209   575A     29.499132   576A     29.646817  
     577A     30.005579   578A     30.203739   579A     35.643786  
     580A     38.825839   581A     85.492602   582A    118.186903  
     583A    118.187145   584A    118.221447   585A    149.556233  
     586A    150.055718   587A    150.183598   588A    150.541283  
     589A    150.758391   590A    199.940060   591A    233.967502  
     592A   1051.658369  

    Final Occupation by Irrep:
              A 
    DOCC [    21 ]
    NA   [    21 ]
    NB   [    21 ]

  @DF-RHF Final Energy:  -246.79522707708182

   => Energetics <=

    Nuclear Repulsion Energy =            206.9829144884706693
    One-Electron Energy =                -742.8018427257404710
    Two-Electron Energy =                 289.0237011601879544
    Total Energy =                       -246.7952270770818473

Computation Completed


Properties will be evaluated at   0.000000,   0.000000,   0.000000 [a0]

Properties computed using the SCF density matrix


 Multipole Moments:

 ------------------------------------------------------------------------------------
     Multipole            Electronic (a.u.)      Nuclear  (a.u.)        Total (a.u.)
 ------------------------------------------------------------------------------------

 L = 1.  Multiply by 2.5417464519 to convert [e a0] to [Debye]
 Dipole X            :         -0.0000000           -0.0000000           -0.0000000
 Dipole Y            :          0.0000000           -0.0000000            0.0000000
 Dipole Z            :        147.8865859         -148.7735246           -0.8869387
 Magnitude           :                                                    0.8869387

 ------------------------------------------------------------------------------------

*** tstop() called on cmpsrv002 at Thu Sep 19 15:06:50 2024
Module time:
	user time   =      59.15 seconds =       0.99 minutes
	system time =       3.73 seconds =       0.06 minutes
	total time  =        903 seconds =      15.05 minutes
Total time:
	user time   =     147.15 seconds =       2.45 minutes
	system time =      25.62 seconds =       0.43 minutes
	total time  =       3047 seconds =      50.78 minutes

         ---------------------------------------------------------
                        SAPT(DFT): delta HF Segment                

                   by Daniel G. A. Smith and Rob Parrish           
         ---------------------------------------------------------


  ==> Preparing SAPT Data Cache <== 

  ==> DiskDFJK: Density-Fitted J/K Matrices <==

    J tasked:                  Yes
    K tasked:                  Yes
    wK tasked:                  No
    OpenMP threads:              4
    Integrals threads:           4
    Memory [MiB]:             5722
    Algorithm:                Core
    Integral Cache:           SAVE
    Schwarz Cutoff:          1E-12
    Fitting Condition:       1E-10

   => Auxiliary Basis Set <=

  Basis Set: (THIS_BASIS AUX)
    Blend: DEF2-UNIVERSAL-JKFIT
    Number of shells: 224
    Number of basis functions: 688
    Number of Cartesian functions: 813
    Spherical Harmonics?: true
    Max angular momentum: 4


  ==> E10 Electostatics <== 

    Elst10,r                         -3.76602792 [mEh]

  ==> E10 Exchange <== 

    Exch10(S^2)                       0.31626899 [mEh]
    Exch10                            0.31639289 [mEh]

  ==> E20 Induction <== 

   => Uncoupled Induction <= 

    Ind20,u (A<-B)                   -0.13623522 [mEh]
    Ind20,u (A->B)                   -0.21145605 [mEh]
    Ind20,u                          -0.34769127 [mEh]
    Exch-Ind20,u (A<-B)               0.00623655 [mEh]
    Exch-Ind20,u (A->B)               0.04078096 [mEh]
    Exch-Ind20,u                      0.04701751 [mEh]
    Exch-Ind20,u (A<-B) (S^inf)       0.00623780 [mEh]
    Exch-Ind20,u (A->B) (S^inf)       0.04082711 [mEh]
    Exch-Ind20,u (S^inf)              0.04706490 [mEh]

   => Coupled Induction <= 

   ---------------------------------------------------
              SAPT Coupled Induction Solver           
   ---------------------------------------------------
    Maxiter             =          20
    Convergence         =   1.000E-06
   ---------------------------------------------------
     Iter       (A<-B)           (B->A)      Time [s]
   ---------------------------------------------------
    Guess    3.800202e-01     3.634997e-01          1
        1    1.581927e-01     1.557176e-01          3
        2    2.748367e-02     3.790638e-02          5
        3    1.052486e-02     1.732048e-02          6
        4    1.920108e-03     7.346530e-03          7
        5    5.726292e-04     3.515676e-03          9
        6    1.036831e-04     6.503771e-04         10
        7    9.555000e-06     1.955712e-04         12
        8    1.556735e-06     6.883293e-05         14
        9    2.001245e-07*    1.931104e-05         16
       10    2.001245e-07*    5.832989e-06         18
       11    2.001245e-07*    1.695750e-06         19
       12    2.001245e-07*    3.588318e-07*        21
   ---------------------------------------------------

    Ind20,r (A<-B)                   -0.15450690 [mEh]
    Ind20,r (A->B)                   -0.25758956 [mEh]
    Ind20,r                          -0.41209646 [mEh]
    Exch-Ind20,r (A<-B)               0.00605985 [mEh]
    Exch-Ind20,r (A->B)               0.05519353 [mEh]
    Exch-Ind20,r                      0.06125338 [mEh]
    Exch-Ind20,r (A<-B) (S^inf)       0.00605924 [mEh]
    Exch-Ind20,r (A->B) (S^inf)       0.05525696 [mEh]
    Exch-Ind20,r (S^inf)              0.06131620 [mEh]

   Partial SAPT(HF) Results, to compute Delta HF (dHF)
  ---------------------------------------------------------------------------------------------------------
    Electrostatics                   -3.76602792 [mEh]     -2.36321820 [kcal/mol]     -9.88770494 [kJ/mol]
      Elst10,r                       -3.76602792 [mEh]     -2.36321820 [kcal/mol]     -9.88770494 [kJ/mol]

    Exchange                          0.31639289 [mEh]      0.19853954 [kcal/mol]      0.83068943 [kJ/mol]
      Exch10                          0.31639289 [mEh]      0.19853954 [kcal/mol]      0.83068943 [kJ/mol]
      Exch10(S^2)                     0.31626899 [mEh]      0.19846179 [kcal/mol]      0.83036411 [kJ/mol]

    Induction (no dHF)               -0.35084308 [mEh]     -0.22015735 [kcal/mol]     -0.92113837 [kJ/mol]
      Ind20,r                        -0.41209646 [mEh]     -0.25859443 [kcal/mol]     -1.08195910 [kJ/mol]
      Exch-Ind20,r                    0.06125338 [mEh]      0.03843708 [kcal/mol]      0.16082073 [kJ/mol]
      Induction (A<-B) (no dHF)      -0.14844706 [mEh]     -0.09315193 [kcal/mol]     -0.38974769 [kJ/mol]
      Induction (A->B) (no dHF)      -0.20239602 [mEh]     -0.12700542 [kcal/mol]     -0.53139068 [kJ/mol]

    Subtotal SAPT(HF)                -3.80047810 [mEh]     -2.38483601 [kcal/mol]     -9.97815389 [kJ/mol]
    Total HF                         -3.90006823 [mEh]     -2.44732976 [kcal/mol]    -10.23962772 [kJ/mol]
    Delta HF                         -0.09959012 [mEh]     -0.06249375 [kcal/mol]     -0.26147383 [kJ/mol]
  ---------------------------------------------------------------------------------------------------------
   Partial SAPT(HF) Results, alternate SAPT0-like display
  ---------------------------------------------------------------------------------------------------------
    Induction                        -0.45043320 [mEh]     -0.28265110 [kcal/mol]     -1.18261221 [kJ/mol]
      Ind20,r                        -0.41209646 [mEh]     -0.25859443 [kcal/mol]     -1.08195910 [kJ/mol]
      Exch-Ind20,r                    0.06125338 [mEh]      0.03843708 [kcal/mol]      0.16082073 [kJ/mol]
      delta HF,r (2)                 -0.09959012 [mEh]     -0.06249375 [kcal/mol]     -0.26147383 [kJ/mol]
      Induction (A<-B)               -0.19058516 [mEh]     -0.11959399 [kcal/mol]     -0.50038126 [kJ/mol]
      Induction (A->B)               -0.25984805 [mEh]     -0.16305711 [kcal/mol]     -0.68223095 [kJ/mol]
  ---------------------------------------------------------------------------------------------------------
   => Libint2 <=

    Primary   basis highest AM E, G, H:  6, 6, 3
    Auxiliary basis highest AM E, G, H:  7, 7, 4
    Onebody   basis highest AM E, G, H:  -, -, -
    Solid Harmonics ordering:            Gaussian

*** tstart() called on cmpsrv002
*** at Thu Sep 19 15:07:27 2024

   => Loading Basis Set <=

    Name: THIS_BASIS
    Role: ORBITAL
    Keyword: BASIS
    atoms 1, 3-4, 11-13 entry H          line    15 file /home/vance/anaconda3/envs/p4env/share/psi4/basis/def2-qzvp.gbs 
    atoms 2             entry CL         line   809 file /home/vance/anaconda3/envs/p4env/share/psi4/basis/def2-qzvp.gbs 
    atoms 5-7, 9-10     entry C          line   194 file /home/vance/anaconda3/envs/p4env/share/psi4/basis/def2-qzvp.gbs 
    atoms 8             entry N          line   242 file /home/vance/anaconda3/envs/p4env/share/psi4/basis/def2-qzvp.gbs 


         ---------------------------------------------------------
                          SAPT(DFT): DFT Monomer A                 
         ---------------------------------------------------------
                                   SCF
               by Justin Turney, Rob Parrish, Andy Simmonett
                          and Daniel G. A. Smith
                              RKS Reference
                        4 Threads,   7629 MiB Core
         ---------------------------------------------------------

  ==> Geometry <==

    Molecular point group: c1
    Full point group: C2v

    Geometry (in Angstrom), charge = 0, multiplicity = 1:

       Center              X                  Y                   Z               Mass       
    ------------   -----------------  -----------------  -----------------  -----------------
         H            0.000000000000     0.000000000000     2.729162886190     1.007825032230
         CL           0.000000000000     0.000000000000     4.096622886190    34.968852682000
      Gh(H)           0.000000000000    -2.147710000000    -3.050977113810     1.007825032230
      Gh(H)           0.000000000000    -2.051420000000    -0.557447113810     1.007825032230
      Gh(C)           0.000000000000     0.000000000000    -3.244777113810    12.000000000000
      Gh(C)           0.000000000000    -1.196400000000    -2.540657113810    12.000000000000
      Gh(C)           0.000000000000    -1.149310000000    -1.154727113810    12.000000000000
      Gh(N)           0.000000000000     0.000000000000    -0.481727113810    14.003074004430
      Gh(C)          -0.000000000000     1.149310000000    -1.154727113810    12.000000000000
      Gh(C)          -0.000000000000     1.196400000000    -2.540657113810    12.000000000000
      Gh(H)          -0.000000000000     2.051420000000    -0.557447113810     1.007825032230
      Gh(H)          -0.000000000000     2.147710000000    -3.050977113810     1.007825032230
      Gh(H)           0.000000000000     0.000000000000    -4.325347113810     1.007825032230

  Running in c1 symmetry.

  Rotational constants: A =      0.20108  B =      0.01776  C =      0.01632 [cm^-1]
  Rotational constants: A =   6028.26605  B =    532.47027  C =    489.25491 [MHz]
  Nuclear repulsion =    6.578629416136488

  Charge       = 0
  Multiplicity = 1
  Electrons    = 18
  Nalpha       = 9
  Nbeta        = 9

  ==> Algorithm <==

  SCF Algorithm Type is DF.
  DIIS enabled.
  MOM disabled.
  Fractional occupation disabled.
  Guess Type is SAD.
  Energy threshold   = 1.00e-08
  Density threshold  = 1.00e-08
  Integral threshold = 1.00e-12

  ==> Primary Basis <==

  Basis Set: THIS_BASIS
    Blend: DEF2-QZVP
    Number of shells: 184
    Number of basis functions: 592
    Number of Cartesian functions: 728
    Spherical Harmonics?: true
    Max angular momentum: 4

  ==> DFT Potential <==

   => LibXC <=

[...]
     187A      2.059833   188A      2.087121   189A      2.106098  
     190A      2.114415   191A      2.114809   192A      2.120617  
     193A      2.134252   194A      2.170105   195A      2.178535  
     196A      2.193292   197A      2.202709   198A      2.223495  
     199A      2.245638   200A      2.268582   201A      2.293162  
     202A      2.293843   203A      2.307533   204A      2.324375  
     205A      2.332086   206A      2.353307   207A      2.355502  
     208A      2.358697   209A      2.359667   210A      2.359870  
     211A      2.371883   212A      2.374856   213A      2.383919  
     214A      2.403222   215A      2.403589   216A      2.404012  
     217A      2.441487   218A      2.446309   219A      2.459873  
     220A      2.471428   221A      2.483601   222A      2.487462  
     223A      2.496561   224A      2.513159   225A      2.516609  
     226A      2.522898   227A      2.555585   228A      2.569760  
     229A      2.576067   230A      2.593294   231A      2.601866  
     232A      2.640615   233A      2.659361   234A      2.667828  
     235A      2.710505   236A      2.721174   237A      2.733126  
     238A      2.733469   239A      2.746426   240A      2.753535  
     241A      2.769254   242A      2.776280   243A      2.819786  
     244A      2.830923   245A      2.839562   246A      2.846467  
     247A      2.864746   248A      2.899539   249A      2.972118  
     250A      2.986725   251A      2.998947   252A      3.026755  
     253A      3.028879   254A      3.044213   255A      3.129798  
     256A      3.130939   257A      3.138569   258A      3.139433  
     259A      3.193069   260A      3.198529   261A      3.210720  
     262A      3.253755   263A      3.258336   264A      3.280847  
     265A      3.303886   266A      3.313962   267A      3.314448  
     268A      3.340123   269A      3.374671   270A      3.428764  
     271A      3.430257   272A      3.444125   273A      3.445128  
     274A      3.467154   275A      3.480630   276A      3.546750  
     277A      3.566017   278A      3.599596   279A      3.610009  
     280A      3.662716   281A      3.693363   282A      3.707320  
     283A      3.791305   284A      3.823780   285A      3.824208  
     286A      3.836605   287A      3.854626   288A      3.871402  
     289A      3.892309   290A      3.907077   291A      3.945276  
     292A      3.970081   293A      4.050261   294A      4.099533  
     295A      4.105341   296A      4.119490   297A      4.155498  
     298A      4.167067   299A      4.301634   300A      4.363646  
     301A      4.399418   302A      4.465368   303A      4.465370  
     304A      4.486854   305A      4.486858   306A      4.502956  
     307A      4.541412   308A      4.597055   309A      4.597216  
     310A      4.627967   311A      4.639634   312A      4.660028  
     313A      4.732343   314A      4.739109   315A      4.784947  
     316A      4.826051   317A      4.837144   318A      4.845979  
     319A      4.977579   320A      4.982864   321A      4.991661  
     322A      4.997322   323A      5.033117   324A      5.115127  
     325A      5.156147   326A      5.165079   327A      5.175586  
     328A      5.183571   329A      5.193971   330A      5.221758  
     331A      5.223432   332A      5.257985   333A      5.259360  
     334A      5.293177   335A      5.294675   336A      5.350732  
     337A      5.354495   338A      5.363315   339A      5.380504  
     340A      5.392387   341A      5.426376   342A      5.434752  
     343A      5.440732   344A      5.461099   345A      5.472121  
     346A      5.548316   347A      5.558732   348A      5.565480  
     349A      5.575881   350A      5.629776   351A      5.669522  
     352A      5.674294   353A      5.678151   354A      5.716150  
     355A      5.739069   356A      5.751880   357A      5.751885  
     358A      5.757543   359A      5.761939   360A      5.762367  
     361A      5.767466   362A      5.767502   363A      5.787057  
     364A      5.800926   365A      5.833953   366A      5.877019  
     367A      5.887676   368A      5.908420   369A      5.940295  
     370A      5.949298   371A      5.950325   372A      5.964339  
     373A      5.977058   374A      5.995169   375A      6.015398  
     376A      6.018709   377A      6.021763   378A      6.067753  
     379A      6.080011   380A      6.084708   381A      6.087132  
     382A      6.097311   383A      6.098698   384A      6.124844  
     385A      6.127342   386A      6.130415   387A      6.186916  
     388A      6.190396   389A      6.201725   390A      6.213135  
     391A      6.221516   392A      6.222131   393A      6.234469  
     394A      6.235270   395A      6.237768   396A      6.274504  
     397A      6.276885   398A      6.276905   399A      6.326162  
     400A      6.328587   401A      6.328889   402A      6.340545  
     403A      6.353948   404A      6.381082   405A      6.400035  
     406A      6.457196   407A      6.473952   408A      6.476296  
     409A      6.492008   410A      6.492810   411A      6.494868  
     412A      6.544244   413A      6.566404   414A      6.587223  
     415A      6.603438   416A      6.604382   417A      6.624209  
     418A      6.631111   419A      6.640227   420A      6.665416  
     421A      6.712821   422A      6.712899   423A      6.726387  
     424A      6.739144   425A      6.743491   426A      6.806274  
     427A      6.818694   428A      6.916262   429A      6.916291  
     430A      6.952583   431A      6.956145   432A      6.973496  
     433A      6.980071   434A      7.016628   435A      7.052561  
     436A      7.071942   437A      7.100237   438A      7.141714  
     439A      7.166570   440A      7.212051   441A      7.238271  
     442A      7.348223   443A      7.362884   444A      7.368397  
     445A      7.369653   446A      7.374581   447A      7.429862  
     448A      7.458355   449A      7.458757   450A      7.474267  
     451A      7.511420   452A      7.536227   453A      7.555949  
     454A      7.579690   455A      7.616391   456A      7.646545  
     457A      7.649305   458A      7.671627   459A      7.688513  
     460A      7.738184   461A      7.757761   462A      7.782940  
     463A      7.786271   464A      7.851720   465A      7.885870  
     466A      7.895995   467A      7.906253   468A      7.917630  
     469A      7.925575   470A      7.932113   471A      7.954951  
     472A      7.955443   473A      7.962971   474A      7.989417  
     475A      8.024017   476A      8.056530   477A      8.057900  
     478A      8.059344   479A      8.082813   480A      8.083177  
     481A      8.174993   482A      8.185716   483A      8.234811  
     484A      8.254335   485A      8.257688   486A      8.267056  
     487A      8.290173   488A      8.294697   489A      8.317735  
     490A      8.327307   491A      8.329484   492A      8.357324  
     493A      8.374718   494A      8.397539   495A      8.406030  
     496A      8.468343   497A      8.489018   498A      8.510768  
     499A      8.541235   500A      8.563575   501A      8.601909  
     502A      8.637629   503A      8.666687   504A      8.677797  
     505A      8.688749   506A      8.691072   507A      8.719093  
     508A      8.727288   509A      8.727620   510A      8.743562  
     511A      8.871183   512A      8.886271   513A      8.953496  
     514A      9.037071   515A      9.042747   516A      9.046724  
     517A      9.072145   518A      9.108686   519A      9.116394  
     520A      9.207395   521A      9.226792   522A      9.292371  
     523A      9.295130   524A      9.302654   525A      9.311445  
     526A      9.476667   527A      9.482525   528A      9.575960  
     529A      9.652198   530A      9.675497   531A      9.718404  
     532A      9.722683   533A      9.735779   534A      9.761171  
     535A      9.813565   536A      9.824887   537A      9.852310  
     538A      9.852753   539A      9.998213   540A     10.004720  
     541A     10.019165   542A     10.046162   543A     10.084484  
     544A     10.169610   545A     10.216996   546A     10.275811  
     547A     10.302629   548A     10.413706   549A     10.502786  
     550A     10.624055   551A     10.679498   552A     10.790536  
     553A     10.949401   554A     11.007092   555A     11.645975  
     556A     11.713988   557A     11.825731   558A     11.962120  
     559A     11.992017   560A     12.267758   561A     12.616326  
     562A     12.619057   563A     12.889876   564A     13.139796  
     565A     15.269192   566A     21.629728   567A     21.635179  
     568A     21.660893   569A     21.660988   570A     21.752424  
     571A     21.753834   572A     21.850793   573A     22.368915  
     574A     28.010905   575A     28.528283   576A     28.678927  
     577A     29.034090   578A     29.230819   579A     35.570476  
     580A     37.690422   581A     85.417008   582A    118.110105  
     583A    118.110328   584A    118.141307   585A    147.228668  
     586A    147.727744   587A    147.858311   588A    148.212203  
     589A    148.427969   590A    197.174069   591A    233.892317  
     592A   1051.538873  

    Final Occupation by Irrep:
              A 
    DOCC [    21 ]
    NA   [    21 ]
    NB   [    21 ]

  @DF-RKS Final Energy:  -248.09018007908492

   => Energetics <=

    Nuclear Repulsion Energy =            206.9829144884706693
    One-Electron Energy =                -743.5473976166982766
    Two-Electron Energy =                 315.5190189739538482
    DFT Exchange-Correlation Energy =     -27.0447159248111575
    Empirical Dispersion Energy =           0.0000000000000000
    VV10 Nonlocal Energy =                  0.0000000000000000
    Total Energy =                       -248.0901800790849165

Computation Completed


Properties will be evaluated at   0.000000,   0.000000,   0.000000 [a0]

Properties computed using the SCF density matrix


 Multipole Moments:

 ------------------------------------------------------------------------------------
     Multipole            Electronic (a.u.)      Nuclear  (a.u.)        Total (a.u.)
 ------------------------------------------------------------------------------------

 L = 1.  Multiply by 2.5417464519 to convert [e a0] to [Debye]
 Dipole X            :         -0.0000000           -0.0000000           -0.0000000
 Dipole Y            :          0.0000000           -0.0000000            0.0000000
 Dipole Z            :        147.9075153         -148.7735246           -0.8660093
 Magnitude           :                                                    0.8660093

 ------------------------------------------------------------------------------------

*** tstop() called on cmpsrv002 at Thu Sep 19 15:22:41 2024
Module time:
	user time   =     102.12 seconds =       1.70 minutes
	system time =       3.33 seconds =       0.06 minutes
	total time  =        373 seconds =       6.22 minutes
Total time:
	user time   =     461.99 seconds =       7.70 minutes
	system time =      35.91 seconds =       0.60 minutes
	total time  =       3998 seconds =      66.63 minutes

         ---------------------------------------------------------
               SAPT(DFT): Intermolecular Interaction Segment       

                   by Daniel G. A. Smith and Rob Parrish           
         ---------------------------------------------------------

  ==> Algorithm <==

   SAPT DFT Functional             PBE0
   Monomer A GRAC Shift        0.116251
   Monomer B GRAC Shift        0.074627
   Delta HF                        True
   JK Algorithm                      DF

  ==> Preparing SAPT Data Cache <== 

  ==> DiskDFJK: Density-Fitted J/K Matrices <==

    J tasked:                  Yes
    K tasked:                  Yes
    wK tasked:                  No
    OpenMP threads:              4
    Integrals threads:           4
    Memory [MiB]:             2962
    Algorithm:                Core
    Integral Cache:           SAVE
    Schwarz Cutoff:          1E-12
    Fitting Condition:       1E-10

   => Auxiliary Basis Set <=

  Basis Set: (THIS_BASIS AUX)
    Blend: DEF2-UNIVERSAL-JKFIT
    Number of shells: 224
    Number of basis functions: 688
    Number of Cartesian functions: 813
    Spherical Harmonics?: true
    Max angular momentum: 4


  ==> E10 Electostatics <== 

    Elst10,r                         -3.56241171 [mEh]

  ==> E10 Exchange <== 

    Exch10(S^2)                       0.41315831 [mEh]
    Exch10                            0.41336394 [mEh]

  ==> E20 Induction <== 

   => Uncoupled Induction <= 

    Ind20,u (A<-B)                   -0.19986012 [mEh]
    Ind20,u (A->B)                   -0.34755334 [mEh]
    Ind20,u                          -0.54741346 [mEh]
    Exch-Ind20,u (A<-B)               0.00669066 [mEh]
    Exch-Ind20,u (A->B)               0.09202592 [mEh]
    Exch-Ind20,u                      0.09871658 [mEh]
    Exch-Ind20,u (A<-B) (S^inf)       0.00668993 [mEh]
    Exch-Ind20,u (A->B) (S^inf)       0.09214437 [mEh]
    Exch-Ind20,u (S^inf)              0.09883430 [mEh]

   => Coupled Induction <= 

   ---------------------------------------------------
              SAPT Coupled Induction Solver           
   ---------------------------------------------------
    Maxiter             =          20
    Convergence         =   1.000E-06
   ---------------------------------------------------
     Iter       (A<-B)           (B->A)      Time [s]
   ---------------------------------------------------
    Guess    8.301770e-01     6.616547e-01         16
        1    1.173458e-01     1.226279e-01         39
        2    2.055860e-02     3.060778e-02         70
        3    5.457201e-03     1.181247e-02        100
        4    7.909173e-04     1.893553e-03        133
        5    9.131868e-05     5.764322e-04        169
        6    8.188380e-06     1.686560e-04        203
        7    3.031541e-07*    5.984927e-05        241
        8    3.031541e-07*    1.496690e-05        257
        9    3.031541e-07*    2.660390e-06        274
       10    3.031541e-07*    5.643422e-07*       292
   ---------------------------------------------------

    Ind20,r (A<-B)                   -0.14794892 [mEh]
    Ind20,r (A->B)                   -0.31806815 [mEh]
    Ind20,r                          -0.46601707 [mEh]
    Exch-Ind20,r (A<-B)               0.00695277 [mEh]
    Exch-Ind20,r (A->B)               0.10440426 [mEh]
    Exch-Ind20,r                      0.11135703 [mEh]
    Exch-Ind20,r (A<-B) (S^inf)       0.00695172 [mEh]
    Exch-Ind20,r (A->B) (S^inf)       0.10453971 [mEh]
    Exch-Ind20,r (S^inf)              0.11149143 [mEh]
   => Loading Basis Set <=

    Name: (THIS_BASIS AUX)
    Role: RIFIT
    Keyword: DF_BASIS_MP2
    atoms 1, 3-4, 11-13 entry H          line    23 file /home/vance/anaconda3/envs/p4env/share/psi4/basis/def2-qzvp-ri.gbs 
    atoms 2             entry CL         line  1113 file /home/vance/anaconda3/envs/p4env/share/psi4/basis/def2-qzvp-ri.gbs 
    atoms 5-7, 9-10     entry C          line   269 file /home/vance/anaconda3/envs/p4env/share/psi4/basis/def2-qzvp-ri.gbs 
    atoms 8             entry N          line   337 file /home/vance/anaconda3/envs/p4env/share/psi4/basis/def2-qzvp-ri.gbs 



  ==> E20 Dispersion (CHF FDDS) <== 

   Legendre Points:          10
   Lambda Shift:          0.300
   Fxc Kernal:             ALDA
   (P|Fxc|Q) Thresh:  1.000e-06
  DFHelper Memory: AOs need 2.871 GiB; user supplied 5.960 GiB. 
  Using in-core AOs.

  ==> DFHelper <==
    NBF:                             592
    NAux:                           1349
    Schwarz Cutoff:                1E-12
    Mask sparsity (%):                22
    DFH Avail. Memory [GiB]:       5.960
    OpenMP threads:                    4
    Algorithm:                    DIRECT
    AO Core:                        True
    MO Core:                       False
    Hold Metric:                   False
    Metric Power:                  0.000
    Fitting Condition:             1E-12
    Q Shell Max:                      11


  DFHelper Memory: AOs need 3.633 GiB; user supplied 5.960 GiB. 
  Using in-core AOs.


   => Time Integration <= 

       Omega       Weight       Disp20,u         Disp20   time [s]
   2.269e+01    6.667e-02      2.427e-06      2.098e-06         37
   4.147e+00    1.495e-01      8.098e-05      6.481e-05         71
   1.572e+00    2.191e-01      4.947e-04      3.649e-04        103
   7.589e-01    2.693e-01      1.326e-03      8.890e-04        135
   4.049e-01    2.955e-01      1.958e-03      1.202e-03        170
   2.223e-01    2.955e-01      1.917e-03      1.106e-03        206
   1.186e-01    2.693e-01      1.456e-03      8.105e-04        244
   5.727e-02    2.191e-01      9.501e-04      5.208e-04        279
   2.170e-02    1.495e-01      5.398e-04      2.945e-04        315
   3.966e-03    6.667e-02      2.159e-04      1.177e-04        349

    Disp20,u                         -1.42306784 [mEh]
    Disp20                           -0.85496349 [mEh]

  ==> E20 Dispersion (MP2) <== 


    Disp20 (MP2)                     -1.41851250 [mEh]
    Exch-Disp20,u                     0.05969059 [mEh]
    Scaling Scheme                    FIXED
    Scaling Factor                    0.770
    Est. Exch-Disp20,r                0.04596175 [mEh]

   SAPT(DFT) Results
  ---------------------------------------------------------------------------------------------------------
    Electrostatics                   -3.56241171 [mEh]     -2.23544710 [kcal/mol]     -9.35311067 [kJ/mol]
      Elst1,r                        -3.56241171 [mEh]     -2.23544710 [kcal/mol]     -9.35311067 [kJ/mol]

    Exchange                          0.41336394 [mEh]      0.25938979 [kcal/mol]      1.08528688 [kJ/mol]
      Exch1                           0.41336394 [mEh]      0.25938979 [kcal/mol]      1.08528688 [kJ/mol]
      Exch1(S^2)                      0.41315831 [mEh]      0.25926075 [kcal/mol]      1.08474700 [kJ/mol]

    Induction                        -0.45425016 [mEh]     -0.28504628 [kcal/mol]     -1.19263364 [kJ/mol]
      Ind2,r                         -0.46601707 [mEh]     -0.29243012 [kcal/mol]     -1.22352764 [kJ/mol]
      Exch-Ind2,r                     0.11135703 [mEh]      0.06987759 [kcal/mol]      0.29236784 [kJ/mol]
      Induction (A<-B)               -0.14099615 [mEh]     -0.08847642 [kcal/mol]     -0.37018535 [kJ/mol]
      Induction (A->B)               -0.21366388 [mEh]     -0.13407611 [kcal/mol]     -0.56097445 [kJ/mol]
      delta HF,r (2)                 -0.09959012 [mEh]     -0.06249375 [kcal/mol]     -0.26147383 [kJ/mol]

    Dispersion                       -0.80900174 [mEh]     -0.50765625 [kcal/mol]     -2.12403377 [kJ/mol]
      Disp2,r                        -0.85496349 [mEh]     -0.53649769 [kcal/mol]     -2.24470634 [kJ/mol]
      Disp2,u                        -1.41851250 [mEh]     -0.89013003 [kcal/mol]     -3.72430405 [kJ/mol]
      Est. Exch-Disp2,r               0.04596175 [mEh]      0.02884144 [kcal/mol]      0.12067257 [kJ/mol]
      Exch-Disp2,u                    0.05969059 [mEh]      0.03745641 [kcal/mol]      0.15671762 [kJ/mol]

    Total SAPT(DFT)                  -4.41229967 [mEh]     -2.76875985 [kcal/mol]    -11.58449120 [kJ/mol]
  ---------------------------------------------------------------------------------------------------------

*** tstop() called on cmpsrv002 at Thu Sep 19 16:16:00 2024
Module time:
	user time   =    3667.48 seconds =      61.12 minutes
	system time =     228.07 seconds =       3.80 minutes
	total time  =       3572 seconds =      59.53 minutes
Total time:
	user time   =    4027.35 seconds =      67.12 minutes
	system time =     260.65 seconds =       4.34 minutes
	total time  =       7197 seconds =     119.95 minutes

    Psi4 stopped on: Thursday, 19 September 2024 04:16PM
    Psi4 wall time for execution: 1:59:57.78

*** Psi4 exiting successfully. Buy a developer a beer!
