
    -----------------------------------------------------------------------
          Psi4: An Open-Source Ab Initio Electronic Structure Package
                               Psi4 1.9.1 release

                         Git: Rev {} zzzzzzz 


    D. G. A. Smith, L. A. Burns, A. C. Simmonett, R. M. Parrish,
    M. C. Schieber, R. Galvelis, P. Kraus, H. Kruse, R. Di Remigio,
    A. Alenaizan, A. M. James, S. Lehtola, J. P. Misiewicz, M. Scheurer,
    R. A. Shaw, J. B. Schriber, Y. Xie, Z. L. Glick, D. A. Sirianni,
    J. S. O'Brien, J. M. Waldrop, A. Kumar, E. G. Hohenstein,
    B. P. Pritchard, B. R. Brooks, H. F. Schaefer III, A. Yu. Sokolov,
    K. Patkowski, A. E. DePrince III, U. Bozkaya, R. A. King,
    F. A. Evangelista, J. M. Turney, T. D. Crawford, C. D. Sherrill,
    J. Chem. Phys. 152(18) 184108 (2020). https://doi.org/10.1063/5.0006002

                            Additional Code Authors
    E. T. Seidl, C. L. Janssen, E. F. Valeev, M. L. Leininger,
    J. F. Gonthier, R. M. Richard, H. R. McAlexander, M. Saitow, X. Wang,
    P. Verma, M. H. Lechner, A. Jiang, S. Behnle, A. G. Heide,
    M. F. Herbst, and D. L. Poole

             Previous Authors, Complete List of Code Contributors,
                       and Citations for Specific Modules
    https://github.com/psi4/psi4/blob/master/codemeta.json
    https://github.com/psi4/psi4/graphs/contributors
    http://psicode.org/psi4manual/master/introduction.html#citing-psifour

    -----------------------------------------------------------------------


    Psi4 started on: Thursday, 19 September 2024 02:16PM

    Process ID: 605861
    Host:       cmpsrv002
    PSIDATADIR: /home/vance/anaconda3/envs/p4env/share/psi4
    Memory:     500.0 MiB
    Threads:    8
    
  ==> Input File <==

--------------------------------------------------------------------------
#charge=0 charge_a=0 charge_b=0 selection_a=1-2 selection_b=3-13 scaling=0.85 benchmark_Eint=-9.362 benchmark_unit=kcal/mol group=XH-N
set_num_threads(4)
memory 8 GB
basis this_basis {
    assign    def2-qzvp
}

molecule {
     0 1
    --
     0 1
     H        0.00000        0.00000        1.62588
    Cl        0.00000        0.00000        2.99334
    --
     0 1
     H        0.00000       -2.14771       -2.30799
     H        0.00000       -2.05142        0.18554
     C        0.00000        0.00000       -2.50179
     C        0.00000       -1.19640       -1.79768
     C        0.00000       -1.14931       -0.41174
     N        0.00000        0.00000        0.26125
     C       -0.00000        1.14931       -0.41174
     C       -0.00000        1.19640       -1.79768
     H       -0.00000        2.05142        0.18554
     H       -0.00000        2.14771       -2.30799
     H        0.00000        0.00000       -3.58237
}

set {
    sapt_dft_functional     PBE0
    scf_type                DF
    freeze_core             true
    sapt_dft_grac_shift_a    0.116251
    sapt_dft_grac_shift_b    0.074627
    sapt_dft_do_hybrid      true
    do_ind_exch_sinf        true
    do_disp_exch_sinf       true
}

nrg = energy('sapt(DFT)')
--------------------------------------------------------------------------
  Threads set to 4 by Python driver.

  Memory set to   7.451 GiB by Python driver.

Scratch directory: /scratch2/vance/psi4/

*** tstart() called on cmpsrv002
*** at Thu Sep 19 14:16:09 2024

  SAPT does not make use of molecular symmetry, further calculations in C1 point group.

         ---------------------------------------------------------
                            SAPT(DFT) Procedure                    

                           by Daniel G. A. Smith                   
         ---------------------------------------------------------

Warning! The default value of SAPT_DFT_EXCH_DISP_SCALE_SCHEME has changed from DISP to FIXED. Please be careful comparing results with earlier versions. 

  ==> Algorithm <==

   SAPT DFT Functional             PBE0
   Monomer A GRAC Shift        0.116251
   Monomer B GRAC Shift        0.074627
   Delta HF                        True
   JK Algorithm                      DF

   Required computations:
     HF  (Dimer)
     HF  (Monomer A)
     HF  (Monomer B)
     DFT (Monomer A)
     DFT (Monomer B)

   => Libint2 <=

    Primary   basis highest AM E, G, H:  6, 6, 3
    Auxiliary basis highest AM E, G, H:  7, 7, 4
    Onebody   basis highest AM E, G, H:  -, -, -
    Solid Harmonics ordering:            Gaussian

*** tstart() called on cmpsrv002
*** at Thu Sep 19 14:16:09 2024

   => Loading Basis Set <=

    Name: THIS_BASIS
    Role: ORBITAL
    Keyword: BASIS
    atoms 1, 3-4, 11-13 entry H          line    15 file /home/vance/anaconda3/envs/p4env/share/psi4/basis/def2-qzvp.gbs 
    atoms 2             entry CL         line   809 file /home/vance/anaconda3/envs/p4env/share/psi4/basis/def2-qzvp.gbs 
    atoms 5-7, 9-10     entry C          line   194 file /home/vance/anaconda3/envs/p4env/share/psi4/basis/def2-qzvp.gbs 
    atoms 8             entry N          line   242 file /home/vance/anaconda3/envs/p4env/share/psi4/basis/def2-qzvp.gbs 


         ---------------------------------------------------------
                         SAPT(DFT): delta HF Dimer                 
         ---------------------------------------------------------
                                   SCF
               by Justin Turney, Rob Parrish, Andy Simmonett
                          and Daniel G. A. Smith
                              RHF Reference
                        4 Threads,   7629 MiB Core
         ---------------------------------------------------------

  ==> Geometry <==

    Molecular point group: c1
    Full point group: C2v

    Geometry (in Angstrom), charge = 0, multiplicity = 1:

       Center              X                  Y                   Z               Mass       
    ------------   -----------------  -----------------  -----------------  -----------------
         H            0.000000000000     0.000000000000     1.460389838641     1.007825032230
         CL           0.000000000000     0.000000000000     2.827849838641    34.968852682000
         H            0.000000000000    -2.147710000000    -2.473480161359     1.007825032230
         H            0.000000000000    -2.051420000000     0.020049838641     1.007825032230
         C            0.000000000000     0.000000000000    -2.667280161359    12.000000000000
         C            0.000000000000    -1.196400000000    -1.963170161359    12.000000000000
         C            0.000000000000    -1.149310000000    -0.577230161359    12.000000000000
         N            0.000000000000     0.000000000000     0.095759838641    14.003074004430
         C           -0.000000000000     1.149310000000    -0.577230161359    12.000000000000
         C           -0.000000000000     1.196400000000    -1.963170161359    12.000000000000
         H           -0.000000000000     2.051420000000     0.020049838641     1.007825032230
         H           -0.000000000000     2.147710000000    -2.473480161359     1.007825032230
         H            0.000000000000     0.000000000000    -3.747860161359     1.007825032230

  Running in c1 symmetry.

  Rotational constants: A =      0.20108  B =      0.03411  C =      0.02916 [cm^-1]
  Rotational constants: A =   6028.26605  B =   1022.47606  C =    874.19985 [MHz]
  Nuclear repulsion =  316.729079834216179

  Charge       = 0
  Multiplicity = 1
  Electrons    = 60
  Nalpha       = 30
  Nbeta        = 30

  ==> Algorithm <==

  SCF Algorithm Type is DF.
  DIIS enabled.
  MOM disabled.
  Fractional occupation disabled.
  Guess Type is SAD.
  Energy threshold   = 1.00e-08
  Density threshold  = 1.00e-08
  Integral threshold = 1.00e-12

  ==> Primary Basis <==

  Basis Set: THIS_BASIS
    Blend: DEF2-QZVP
    Number of shells: 184
    Number of basis functions: 592
    Number of Cartesian functions: 728
    Spherical Harmonics?: true
    Max angular momentum: 4

   => Loading Basis Set <=

    Name: (THIS_BASIS AUX)
    Role: JKFIT
    Keyword: DF_BASIS_SCF
    atoms 1, 3-4, 11-13 entry H          line    18 file /home/vance/anaconda3/envs/p4env/share/psi4/basis/def2-universal-jkfit.gbs 
    atoms 2             entry CL         line   986 file /home/vance/anaconda3/envs/p4env/share/psi4/basis/def2-universal-jkfit.gbs 
    atoms 5-7, 9-10     entry C          line   198 file /home/vance/anaconda3/envs/p4env/share/psi4/basis/def2-universal-jkfit.gbs 
    atoms 8             entry N          line   258 file /home/vance/anaconda3/envs/p4env/share/psi4/basis/def2-universal-jkfit.gbs 

  ==> Integral Setup <==

  ==> DiskDFJK: Density-Fitted J/K Matrices <==

    J tasked:                  Yes
    K tasked:                  Yes
    wK tasked:                  No
    OpenMP threads:              4
    Integrals threads:           4
    Memory [MiB]:             5722
    Algorithm:                Core
    Integral Cache:           SAVE
    Schwarz Cutoff:          1E-12
    Fitting Condition:       1E-10

   => Auxiliary Basis Set <=

  Basis Set: (THIS_BASIS AUX)
    Blend: DEF2-UNIVERSAL-JKFIT
    Number of shells: 224
    Number of basis functions: 688
    Number of Cartesian functions: 813
    Spherical Harmonics?: true
    Max angular momentum: 4

  Minimum eigenvalue in the overlap matrix is 1.9499612417E-05.
  Reciprocal condition number of the overlap matrix is 1.7552687394E-06.
    Using symmetric orthogonalization.

  ==> Pre-Iterations <==

  SCF Guess: Superposition of Atomic Densities via on-the-fly atomic UHF (no occupation information).

   -------------------------
    Irrep   Nso     Nmo    
   -------------------------
     A        592     592 
   -------------------------
    Total     592     592
   -------------------------

  ==> Iterations <==

                           Total Energy        Delta E     RMS |[F,P]|

   @DF-RHF iter SAD:  -706.47394817000611   -7.06474e+02   0.00000e+00 
   @DF-RHF iter   1:  -706.76524819261545   -2.91300e-01   8.52295e-04 ADIIS/DIIS
   @DF-RHF iter   2:  -706.88596223424315   -1.20714e-01   3.45091e-04 ADIIS/DIIS
   @DF-RHF iter   3:  -706.90430309607041   -1.83409e-02   7.49747e-05 DIIS
   @DF-RHF iter   4:  -706.90572852619152   -1.42543e-03   2.14859e-05 DIIS
   @DF-RHF iter   5:  -706.90581930036626   -9.07742e-05   6.60175e-06 DIIS
   @DF-RHF iter   6:  -706.90583009575073   -1.07954e-05   2.60593e-06 DIIS
   @DF-RHF iter   7:  -706.90583207827217   -1.98252e-06   8.53182e-07 DIIS
   @DF-RHF iter   8:  -706.90583243414403   -3.55872e-07   3.08854e-07 DIIS
   @DF-RHF iter   9:  -706.90583248670600   -5.25620e-08   1.25183e-07 DIIS
   @DF-RHF iter  10:  -706.90583249592305   -9.21705e-09   5.06471e-08 DIIS
   @DF-RHF iter  11:  -706.90583249830559   -2.38254e-09   1.97869e-08 DIIS
   @DF-RHF iter  12:  -706.90583249874692   -4.41332e-10   5.57790e-09 DIIS
  Energy and wave function converged.


  ==> Post-Iterations <==

    Orbital Energies [Eh]
    ---------------------

    Doubly Occupied:                                                      

       1A   -104.748293     2A    -15.613121     3A    -11.312745  
       4A    -11.312725     5A    -11.292012     6A    -11.271488  
       7A    -11.271439     8A    -10.476174     9A     -7.943121  
      10A     -7.942086    11A     -7.942066    12A     -1.312431  
      13A     -1.129236    14A     -1.073645    15A     -1.027890  
      16A     -0.898313    17A     -0.896499    18A     -0.768736  
      19A     -0.702520    20A     -0.689394    21A     -0.655566  
      22A     -0.636019    23A     -0.588508    24A     -0.559871  
      25A     -0.557080    26A     -0.428452    27A     -0.409507  
      28A     -0.398566    29A     -0.395242    30A     -0.382297  

    Virtual:                                                              

      31A      0.061244    32A      0.084865    33A      0.088937  
      34A      0.106912    35A      0.118256    36A      0.148214  
      37A      0.151026    38A      0.181344    39A      0.182919  
      40A      0.197117    41A      0.211938    42A      0.219075  
      43A      0.222787    44A      0.239002    45A      0.240521  
      46A      0.254479    47A      0.266972    48A      0.267358  
      49A      0.310441    50A      0.312815    51A      0.338179  
      52A      0.347188    53A      0.348341    54A      0.364844  
      55A      0.373501    56A      0.374939    57A      0.392442  
      58A      0.393883    59A      0.404386    60A      0.423430  
      61A      0.444748    62A      0.448670    63A      0.461652  
      64A      0.462960    65A      0.465958    66A      0.479354  
      67A      0.510409    68A      0.511611    69A      0.533264  
      70A      0.535449    71A      0.540938    72A      0.541061  
      73A      0.558204    74A      0.568688    75A      0.589485  
      76A      0.599321    77A      0.608614    78A      0.622969  
      79A      0.651180    80A      0.661209    81A      0.662731  
      82A      0.665036    83A      0.685707    84A      0.689276  
      85A      0.743080    86A      0.750616    87A      0.773305  
      88A      0.797604    89A      0.804335    90A      0.818567  
      91A      0.825909    92A      0.851976    93A      0.855894  
      94A      0.874593    95A      0.883832    96A      0.893484  
      97A      0.894310    98A      0.898604    99A      0.912561  
     100A      0.916820   101A      0.922963   102A      0.931976  
     103A      0.933556   104A      0.962559   105A      0.971940  
     106A      0.998321   107A      1.011852   108A      1.016844  
     109A      1.036979   110A      1.047162   111A      1.067529  
     112A      1.072917   113A      1.084049   114A      1.100151  
     115A      1.100183   116A      1.110579   117A      1.134493  
     118A      1.149554   119A      1.153617   120A      1.176274  
     121A      1.178468   122A      1.193967   123A      1.217138  
     124A      1.225057   125A      1.234643   126A      1.237880  
     127A      1.268653   128A      1.294145   129A      1.325134  
     130A      1.328189   131A      1.345442   132A      1.346709  
     133A      1.353694   134A      1.375543   135A      1.378047  
     136A      1.398136   137A      1.416100   138A      1.469576  
     139A      1.470835   140A      1.471067   141A      1.483522  
     142A      1.498935   143A      1.500064   144A      1.510828  
     145A      1.521054   146A      1.521778   147A      1.576198  
     148A      1.580601   149A      1.586543   150A      1.609875  
     151A      1.624184   152A      1.626488   153A      1.642107  
     154A      1.649885   155A      1.666229   156A      1.726261  
     157A      1.740012   158A      1.768094   159A      1.799773  
     160A      1.801869   161A      1.813390   162A      1.822409  
     163A      1.850686   164A      1.899676   165A      1.911746  
     166A      1.913840   167A      1.940441   168A      1.959854  
     169A      1.969613   170A      1.976440   171A      1.979813  
     172A      1.988111   173A      2.027344   174A      2.032925  
     175A      2.037076   176A      2.052812   177A      2.057888  
     178A      2.088974   179A      2.136666   180A      2.137739  
     181A      2.148131   182A      2.175975   183A      2.180411  
     184A      2.188523   185A      2.191289   186A      2.194751  
     187A      2.209069   188A      2.209752   189A      2.219887  
     190A      2.253901   191A      2.274850   192A      2.295701  
     193A      2.301964   194A      2.304419   195A      2.318881  
     196A      2.334456   197A      2.341881   198A      2.359672  
     199A      2.401842   200A      2.405925   201A      2.415565  
     202A      2.421575   203A      2.427294   204A      2.464847  
     205A      2.467320   206A      2.475363   207A      2.486941  
     208A      2.496631   209A      2.501326   210A      2.584418  
     211A      2.592657   212A      2.592871   213A      2.610953  
     214A      2.623221   215A      2.623364   216A      2.661110  
     217A      2.665045   218A      2.705175   219A      2.710332  
     220A      2.710691   221A      2.720062   222A      2.726298  
     223A      2.750830   224A      2.751961   225A      2.755732  
     226A      2.789491   227A      2.797939   228A      2.799531  
     229A      2.817544   230A      2.839504   231A      2.848512  
     232A      2.851682   233A      2.857665   234A      2.870701  
     235A      2.889182   236A      2.929135   237A      2.943470  
     238A      2.946736   239A      2.953290   240A      2.998479  
     241A      3.006641   242A      3.032527   243A      3.036975  
     244A      3.039035   245A      3.045885   246A      3.079256  
     247A      3.083465   248A      3.129831   249A      3.175448  
     250A      3.201940   251A      3.234265   252A      3.235593  
     253A      3.254315   254A      3.294451   255A      3.309067  
     256A      3.316291   257A      3.357415   258A      3.359142  
     259A      3.410412   260A      3.410734   261A      3.459004  
     262A      3.459181   263A      3.521560   264A      3.546865  
     265A      3.568800   266A      3.575440   267A      3.597958  
     268A      3.622718   269A      3.647603   270A      3.653928  
     271A      3.658638   272A      3.665560   273A      3.691295  
     274A      3.713014   275A      3.757105   276A      3.766724  
     277A      3.784742   278A      3.784821   279A      3.785928  
     280A      3.815280   281A      3.817947   282A      3.824603  
     283A      3.861722   284A      3.903288   285A      3.912166  
     286A      3.954635   287A      3.975506   288A      4.005360  
     289A      4.010128   290A      4.013984   291A      4.023515  
     292A      4.034488   293A      4.034879   294A      4.061935  
     295A      4.103501   296A      4.128254   297A      4.153908  
     298A      4.155787   299A      4.167412   300A      4.190819  
     301A      4.212965   302A      4.224354   303A      4.268458  
     304A      4.279709   305A      4.309168   306A      4.315089  
     307A      4.349174   308A      4.363057   309A      4.385838  
     310A      4.392751   311A      4.406143   312A      4.436785  
     313A      4.474059   314A      4.480033   315A      4.487191  
     316A      4.488893   317A      4.503809   318A      4.529447  
     319A      4.552423   320A      4.666303   321A      4.704029  
     322A      4.748494   323A      4.758584   324A      4.772059  
     325A      4.812641   326A      4.849128   327A      4.933011  
     328A      4.959138   329A      5.027558   330A      5.069266  
     331A      5.110497   332A      5.147937   333A      5.182890  
     334A      5.198261   335A      5.221878   336A      5.240029  
     337A      5.245016   338A      5.317098   339A      5.385538  
     340A      5.391240   341A      5.392806   342A      5.409895  
     343A      5.429735   344A      5.508872   345A      5.522469  
     346A      5.533825   347A      5.554569   348A      5.575653  
     349A      5.584889   350A      5.619182   351A      5.694663  
     352A      5.703848   353A      5.744489   354A      5.754584  
     355A      5.760355   356A      5.767908   357A      5.824233  
     358A      5.839447   359A      5.851871   360A      5.869787  
     361A      5.881163   362A      5.886357   363A      5.981228  
     364A      5.984915   365A      5.995997   366A      6.015151  
     367A      6.078409   368A      6.078741   369A      6.109560  
     370A      6.116401   371A      6.121485   372A      6.148360  
     373A      6.181951   374A      6.182941   375A      6.185928  
     376A      6.186307   377A      6.233463   378A      6.288287  
     379A      6.302474   380A      6.338513   381A      6.338613  
     382A      6.344619   383A      6.348679   384A      6.405451  
     385A      6.413450   386A      6.415278   387A      6.418535  
     388A      6.444687   389A      6.448641   390A      6.465956  
     391A      6.473307   392A      6.487108   393A      6.488170  
     394A      6.509817   395A      6.536375   396A      6.544732  
     397A      6.558367   398A      6.586388   399A      6.596038  
     400A      6.602606   401A      6.628852   402A      6.630022  
     403A      6.637220   404A      6.649473   405A      6.668347  
     406A      6.692413   407A      6.714888   408A      6.777584  
     409A      6.782509   410A      6.795409   411A      6.807068  
     412A      6.849599   413A      6.869985   414A      6.886655  
     415A      6.890904   416A      6.915735   417A      6.939639  
     418A      6.968892   419A      6.996189   420A      7.011248  
     421A      7.030144   422A      7.060899   423A      7.067568  
     424A      7.097503   425A      7.113958   426A      7.157982  
     427A      7.165912   428A      7.194242   429A      7.198590  
     430A      7.209995   431A      7.221959   432A      7.280330  
     433A      7.302468   434A      7.387633   435A      7.416019  
     436A      7.418684   437A      7.445619   438A      7.464060  
     439A      7.490929   440A      7.491632   441A      7.508822  
     442A      7.536423   443A      7.554480   444A      7.641012  
     445A      7.712774   446A      7.758746   447A      7.763022  
     448A      7.770811   449A      7.802840   450A      7.807527  
     451A      7.846053   452A      7.854676   453A      7.872714  
     454A      7.872750   455A      7.877531   456A      7.930879  
     457A      7.935061   458A      7.989784   459A      7.997128  
     460A      8.027489   461A      8.052209   462A      8.071744  
     463A      8.092822   464A      8.099161   465A      8.101894  
     466A      8.152247   467A      8.208912   468A      8.231143  
     469A      8.234317   470A      8.244782   471A      8.271558  
     472A      8.306316   473A      8.309780   474A      8.333195  
     475A      8.355232   476A      8.380088   477A      8.383659  
     478A      8.403767   479A      8.413817   480A      8.463435  
     481A      8.485764   482A      8.488117   483A      8.490995  
     484A      8.517207   485A      8.535725   486A      8.576541  
     487A      8.618548   488A      8.655186   489A      8.674837  
     490A      8.688292   491A      8.710225   492A      8.720472  
     493A      8.741946   494A      8.749688   495A      8.755792  
     496A      8.764399   497A      8.775938   498A      8.796949  
     499A      8.817792   500A      8.851254   501A      8.858958  
     502A      8.882566   503A      8.894522   504A      8.908415  
     505A      8.965962   506A      8.982400   507A      9.009092  
     508A      9.011448   509A      9.048961   510A      9.067233  
     511A      9.094212   512A      9.117145   513A      9.137123  
     514A      9.139785   515A      9.255578   516A      9.257260  
     517A      9.295717   518A      9.370802   519A      9.382330  
     520A      9.496262   521A      9.517864   522A      9.554602  
     523A      9.577584   524A      9.639359   525A      9.673908  
     526A      9.731230   527A      9.819349   528A      9.825448  
     529A      9.847564   530A      9.934913   531A      9.962540  
     532A     10.043456   533A     10.079235   534A     10.120522  
     535A     10.135559   536A     10.165016   537A     10.189326  
     538A     10.233764   539A     10.256484   540A     10.292658  
     541A     10.315874   542A     10.446543   543A     10.446829  
     544A     10.556622   545A     10.567886   546A     10.583972  
     547A     10.615849   548A     10.671947   549A     10.692551  
     550A     10.750024   551A     10.896617   552A     10.995970  
     553A     11.044010   554A     11.073476   555A     11.157317  
     556A     11.182745   557A     11.296877   558A     11.368973  
     559A     11.382430   560A     11.427479   561A     11.523186  
     562A     11.529448   563A     11.612076   564A     11.863733  
     565A     12.253648   566A     12.449229   567A     12.549113  
     568A     12.550580   569A     12.806267   570A     13.001507  
     571A     13.159003   572A     13.237000   573A     13.405404  
     574A     13.672951   575A     28.971123   576A     29.469705  
     577A     29.644169   578A     29.990847   579A     30.125851  
     580A     30.199952   581A     38.926195   582A     43.375724  
     583A     43.379487   584A     43.580744   585A    100.535973  
     586A    149.544681   587A    150.026026   588A    150.179925  
     589A    150.526884   590A    150.744550   591A    200.077203  
     592A    530.921141  

    Final Occupation by Irrep:
              A 
    DOCC [    30 ]
    NA   [    30 ]
    NB   [    30 ]

  @DF-RHF Final Energy:  -706.90583249874692

   => Energetics <=

    Nuclear Repulsion Energy =            316.7290798342161793
    One-Electron Energy =               -1597.9997421206946910
    Two-Electron Energy =                 574.3648297877315372
    Total Energy =                       -706.9058324987469177

Computation Completed


Properties will be evaluated at   0.000000,   0.000000,   0.000000 [a0]

Properties computed using the SCF density matrix


 Multipole Moments:

 ------------------------------------------------------------------------------------
     Multipole            Electronic (a.u.)      Nuclear  (a.u.)        Total (a.u.)
 ------------------------------------------------------------------------------------

 L = 1.  Multiply by 2.5417464519 to convert [e a0] to [Debye]
 Dipole X            :          0.0000000           -0.0000000            0.0000000
 Dipole Y            :          0.0000000           -0.0000000            0.0000000
 Dipole Z            :          6.3379321           -9.3334512           -2.9955192
 Magnitude           :                                                    2.9955192

 ------------------------------------------------------------------------------------

*** tstop() called on cmpsrv002 at Thu Sep 19 14:34:49 2024
Module time:
	user time   =      59.98 seconds =       1.00 minutes
	system time =       6.20 seconds =       0.10 minutes
	total time  =       1120 seconds =      18.67 minutes
Total time:
	user time   =      59.99 seconds =       1.00 minutes
	system time =       6.20 seconds =       0.10 minutes
	total time  =       1120 seconds =      18.67 minutes
   => Libint2 <=

    Primary   basis highest AM E, G, H:  6, 6, 3
    Auxiliary basis highest AM E, G, H:  7, 7, 4
    Onebody   basis highest AM E, G, H:  -, -, -
    Solid Harmonics ordering:            Gaussian

*** tstart() called on cmpsrv002
*** at Thu Sep 19 14:34:49 2024

   => Loading Basis Set <=

    Name: THIS_BASIS
    Role: ORBITAL
    Keyword: BASIS
    atoms 1, 3-4, 11-13 entry H          line    15 file /home/vance/anaconda3/envs/p4env/share/psi4/basis/def2-qzvp.gbs 
    atoms 2             entry CL         line   809 file /home/vance/anaconda3/envs/p4env/share/psi4/basis/def2-qzvp.gbs 
    atoms 5-7, 9-10     entry C          line   194 file /home/vance/anaconda3/envs/p4env/share/psi4/basis/def2-qzvp.gbs 
    atoms 8             entry N          line   242 file /home/vance/anaconda3/envs/p4env/share/psi4/basis/def2-qzvp.gbs 


         ---------------------------------------------------------
                       SAPT(DFT): delta HF Monomer A               
         ---------------------------------------------------------
                                   SCF
               by Justin Turney, Rob Parrish, Andy Simmonett
                          and Daniel G. A. Smith
                              RHF Reference
                        4 Threads,   7629 MiB Core
         ---------------------------------------------------------

  ==> Geometry <==

    Molecular point group: c1
    Full point group: C2v

    Geometry (in Angstrom), charge = 0, multiplicity = 1:

       Center              X                  Y                   Z               Mass       
    ------------   -----------------  -----------------  -----------------  -----------------
         H            0.000000000000     0.000000000000     1.460389838641     1.007825032230
         CL           0.000000000000     0.000000000000     2.827849838641    34.968852682000
      Gh(H)           0.000000000000    -2.147710000000    -2.473480161359     1.007825032230
      Gh(H)           0.000000000000    -2.051420000000     0.020049838641     1.007825032230
      Gh(C)           0.000000000000     0.000000000000    -2.667280161359    12.000000000000
      Gh(C)           0.000000000000    -1.196400000000    -1.963170161359    12.000000000000
      Gh(C)           0.000000000000    -1.149310000000    -0.577230161359    12.000000000000
      Gh(N)           0.000000000000     0.000000000000     0.095759838641    14.003074004430
      Gh(C)          -0.000000000000     1.149310000000    -0.577230161359    12.000000000000
      Gh(C)          -0.000000000000     1.196400000000    -1.963170161359    12.000000000000
      Gh(H)          -0.000000000000     2.051420000000     0.020049838641     1.007825032230
      Gh(H)          -0.000000000000     2.147710000000    -2.473480161359     1.007825032230
      Gh(H)           0.000000000000     0.000000000000    -3.747860161359     1.007825032230

  Running in c1 symmetry.

  Rotational constants: A =      0.20108  B =      0.03411  C =      0.02916 [cm^-1]
  Rotational constants: A =   6028.26605  B =   1022.47606  C =    874.19985 [MHz]
  Nuclear repulsion =    6.578629416136486

  Charge       = 0
  Multiplicity = 1
  Electrons    = 18
  Nalpha       = 9
  Nbeta        = 9

  ==> Algorithm <==

  SCF Algorithm Type is DF.
  DIIS enabled.
  MOM disabled.
  Fractional occupation disabled.
  Guess Type is SAD.
  Energy threshold   = 1.00e-08
  Density threshold  = 1.00e-08
  Integral threshold = 1.00e-12

  ==> Primary Basis <==

  Basis Set: THIS_BASIS
    Blend: DEF2-QZVP
    Number of shells: 184
    Number of basis functions: 592
    Number of Cartesian functions: 728
    Spherical Harmonics?: true
    Max angular momentum: 4

   => Loading Basis Set <=

    Name: (THIS_BASIS AUX)
    Role: JKFIT
    Keyword: DF_BASIS_SCF
    atoms 1, 3-4, 11-13 entry H          line    18 file /home/vance/anaconda3/envs/p4env/share/psi4/basis/def2-universal-jkfit.gbs 
    atoms 2             entry CL         line   986 file /home/vance/anaconda3/envs/p4env/share/psi4/basis/def2-universal-jkfit.gbs 
    atoms 5-7, 9-10     entry C          line   198 file /home/vance/anaconda3/envs/p4env/share/psi4/basis/def2-universal-jkfit.gbs 
    atoms 8             entry N          line   258 file /home/vance/anaconda3/envs/p4env/share/psi4/basis/def2-universal-jkfit.gbs 

  ==> Integral Setup <==

  ==> DiskDFJK: Density-Fitted J/K Matrices <==

    J tasked:                  Yes
    K tasked:                  Yes
    wK tasked:                  No
    OpenMP threads:              4
    Integrals threads:           4
    Memory [MiB]:             5722
    Algorithm:                Core
    Integral Cache:           SAVE
    Schwarz Cutoff:          1E-12
    Fitting Condition:       1E-10

   => Auxiliary Basis Set <=

  Basis Set: (THIS_BASIS AUX)
    Blend: DEF2-UNIVERSAL-JKFIT
    Number of shells: 224
    Number of basis functions: 688
    Number of Cartesian functions: 813
    Spherical Harmonics?: true
    Max angular momentum: 4

  Minimum eigenvalue in the overlap matrix is 1.9499612417E-05.
  Reciprocal condition number of the overlap matrix is 1.7552687394E-06.
    Using symmetric orthogonalization.

  ==> Pre-Iterations <==

  SCF Guess: Superposition of Atomic Densities via on-the-fly atomic UHF (no occupation information).

   -------------------------
    Irrep   Nso     Nmo    
   -------------------------
     A        592     592 
   -------------------------
    Total     592     592
   -------------------------

  ==> Iterations <==

                           Total Energy        Delta E     RMS |[F,P]|

   @DF-RHF iter SAD:  -459.85761979752624   -4.59858e+02   0.00000e+00 
   @DF-RHF iter   1:  -460.08219668443405   -2.24577e-01   3.75640e-04 ADIIS/DIIS
   @DF-RHF iter   2:  -460.10310924033678   -2.09126e-02   1.60901e-04 ADIIS/DIIS
   @DF-RHF iter   3:  -460.10617175356913   -3.06251e-03   2.75927e-05 DIIS
   @DF-RHF iter   4:  -460.10653452623245   -3.62773e-04   8.83987e-06 DIIS
   @DF-RHF iter   5:  -460.10658186472392   -4.73385e-05   1.56796e-06 DIIS
   @DF-RHF iter   6:  -460.10658315677466   -1.29205e-06   3.37780e-07 DIIS
   @DF-RHF iter   7:  -460.10658318220339   -2.54287e-08   7.29155e-08 DIIS
   @DF-RHF iter   8:  -460.10658318427170   -2.06830e-09   1.46873e-08 DIIS
   @DF-RHF iter   9:  -460.10658318435895   -8.72546e-11   2.20610e-09 DIIS
  Energy and wave function converged.


  ==> Post-Iterations <==

    Orbital Energies [Eh]
    ---------------------

    Doubly Occupied:                                                      

       1A   -104.853090     2A    -10.576365     3A     -8.043414  
       4A     -8.041846     5A     -8.041845     6A     -1.101159  
       7A     -0.605874     8A     -0.474636     9A     -0.474626  

    Virtual:                                                              

      10A      0.040999    11A      0.083626    12A      0.083637  
      13A      0.124700    14A      0.133821    15A      0.138396  
      16A      0.154363    17A      0.175780    18A      0.188611  
      19A      0.190557    20A      0.204072    21A      0.224177  
      22A      0.231983    23A      0.235477    24A      0.261852  
      25A      0.263053    26A      0.263698    27A      0.273029  
      28A      0.293154    29A      0.315784    30A      0.315865  
      31A      0.342759    32A      0.343360    33A      0.349653  
      34A      0.361729    35A      0.373162    36A      0.386862  
      37A      0.400169    38A      0.411521    39A      0.415070  
      40A      0.423288    41A      0.454916    42A      0.485564  
      43A      0.495752    44A      0.499802    45A      0.500501  
      46A      0.545021    47A      0.551978    48A      0.580836  
      49A      0.590558    50A      0.598980    51A      0.607729  
      52A      0.609463    53A      0.614426    54A      0.620060  
      55A      0.651543    56A      0.681313    57A      0.682526  
      58A      0.698466    59A      0.719094    60A      0.732671  
      61A      0.744891    62A      0.753821    63A      0.761067  
      64A      0.791120    65A      0.792466    66A      0.798681  
      67A      0.819765    68A      0.822717    69A      0.825112  
      70A      0.835122    71A      0.837360    72A      0.862814  
      73A      0.891885    74A      0.912501    75A      0.918245  
      76A      0.918469    77A      0.919329    78A      0.938026  
      79A      0.948440    80A      0.982468    81A      1.005655  
      82A      1.019858    83A      1.026794    84A      1.034756  
      85A      1.058071    86A      1.067836    87A      1.081689  
      88A      1.097649    89A      1.145416    90A      1.165356  
      91A      1.169015    92A      1.173967    93A      1.178565  
      94A      1.191296    95A      1.207203    96A      1.212505  
      97A      1.259674    98A      1.278124    99A      1.295248  
     100A      1.302578   101A      1.316325   102A      1.317346  
     103A      1.335489   104A      1.359927   105A      1.375203  
     106A      1.379760   107A      1.382918   108A      1.398473  
     109A      1.407647   110A      1.414589   111A      1.427100  
     112A      1.436811   113A      1.446410   114A      1.472651  
     115A      1.480861   116A      1.488758   117A      1.510026  
     118A      1.516455   119A      1.516842   120A      1.534108  
     121A      1.551828   122A      1.562699   123A      1.567673  
     124A      1.568569   125A      1.599663   126A      1.607558  
     127A      1.623583   128A      1.624903   129A      1.640998  
     130A      1.668926   131A      1.684484   132A      1.700237  
     133A      1.714869   134A      1.739393   135A      1.747402  
     136A      1.754773   137A      1.788075   138A      1.825539  
     139A      1.844775   140A      1.846210   141A      1.865567  
     142A      1.887091   143A      1.906890   144A      1.947900  
     145A      1.948216   146A      1.962767   147A      1.975816  
     148A      1.985412   149A      2.033310   150A      2.082400  
     151A      2.103861   152A      2.169425   153A      2.180169  
     154A      2.184723   155A      2.195466   156A      2.259842  
     157A      2.288903   158A      2.327055   159A      2.338353  
     160A      2.342064   161A      2.362857   162A      2.375677  
     163A      2.376842   164A      2.420306   165A      2.429416  
     166A      2.430237   167A      2.444755   168A      2.444980  
     169A      2.460900   170A      2.474779   171A      2.514013  
     172A      2.519138   173A      2.525443   174A      2.538113  
     175A      2.550225   176A      2.561275   177A      2.564886  
     178A      2.569761   179A      2.571363   180A      2.575365  
     181A      2.606621   182A      2.608979   183A      2.612718  
     184A      2.623267   185A      2.637174   186A      2.638087  
     187A      2.645958   188A      2.661890   189A      2.683031  
     190A      2.688831   191A      2.707240   192A      2.707708  
     193A      2.749931   194A      2.753102   195A      2.768262  
     196A      2.797126   197A      2.814138   198A      2.814723  
     199A      2.832892   200A      2.847913   201A      2.880525  
     202A      2.895153   203A      2.912718   204A      2.924223  
     205A      2.925407   206A      2.952940   207A      2.956612  
     208A      2.972741   209A      2.986724   210A      3.001051  
     211A      3.003490   212A      3.029395   213A      3.041660  
     214A      3.052106   215A      3.064965   216A      3.099893  
     217A      3.122899   218A      3.134560   219A      3.135560  
     220A      3.147020   221A      3.187910   222A      3.193744  
     223A      3.201366   224A      3.204427   225A      3.238631  
     226A      3.290317   227A      3.305551   228A      3.311250  
     229A      3.351752   230A      3.353810   231A      3.373084  
     232A      3.392053   233A      3.413048   234A      3.440983  
     235A      3.457453   236A      3.483396   237A      3.501202  
     238A      3.557237   239A      3.563925   240A      3.589902  
     241A      3.592080   242A      3.600488   243A      3.612416  
     244A      3.614884   245A      3.635789   246A      3.670411  
     247A      3.671625   248A      3.688952   249A      3.700711  
     250A      3.755500   251A      3.762944   252A      3.787011  
     253A      3.827758   254A      3.856537   255A      3.887251  
     256A      3.912393   257A      3.930751   258A      3.933886  
     259A      3.937105   260A      3.955447   261A      3.962359  
     262A      3.962649   263A      4.010046   264A      4.028220  
     265A      4.076827   266A      4.086182   267A      4.122817  
     268A      4.145105   269A      4.153640   270A      4.190085  
     271A      4.193177   272A      4.194436   273A      4.228704  
     274A      4.251405   275A      4.253890   276A      4.254077  
     277A      4.277777   278A      4.306588   279A      4.314918  
     280A      4.325555   281A      4.367087   282A      4.374314  
     283A      4.436206   284A      4.478079   285A      4.488890  
     286A      4.506879   287A      4.537396   288A      4.561733  
     289A      4.600764   290A      4.618734   291A      4.671358  
     292A      4.678488   293A      4.682806   294A      4.717560  
     295A      4.768219   296A      4.798378   297A      4.815146  
     298A      4.869044   299A      4.906744   300A      4.907304  
     301A      5.034411   302A      5.051133   303A      5.063663  
     304A      5.071305   305A      5.186143   306A      5.187633  
     307A      5.266470   308A      5.381589   309A      5.396928  
     310A      5.478855   311A      5.487770   312A      5.593016  
     313A      5.669621   314A      5.720388   315A      5.743867  
     316A      5.791202   317A      5.822242   318A      5.850236  
     319A      5.872024   320A      5.889948   321A      5.893485  
     322A      5.933406   323A      5.935803   324A      5.983806  
     325A      6.006746   326A      6.011590   327A      6.028883  
     328A      6.031955   329A      6.086595   330A      6.096693  
     331A      6.110033   332A      6.114179   333A      6.131668  
     334A      6.140703   335A      6.178766   336A      6.191855  
     337A      6.213655   338A      6.272430   339A      6.276996  
     340A      6.279306   341A      6.292290   342A      6.348101  
     343A      6.404004   344A      6.409457   345A      6.419920  
     346A      6.451805   347A      6.498133   348A      6.502192  
     349A      6.517793   350A      6.551280   351A      6.574532  
     352A      6.579501   353A      6.598317   354A      6.655098  
     355A      6.661640   356A      6.715978   357A      6.723852  
     358A      6.747510   359A      6.783467   360A      6.844162  
     361A      6.844600   362A      6.847057   363A      6.864245  
     364A      6.878844   365A      6.903879   366A      6.926273  
     367A      6.930096   368A      6.940832   369A      6.976334  
     370A      7.018014   371A      7.022253   372A      7.036020  
     373A      7.054162   374A      7.062300   375A      7.080632  
     376A      7.115967   377A      7.143918   378A      7.167061  
     379A      7.178283   380A      7.194829   381A      7.221713  
     382A      7.260733   383A      7.268213   384A      7.292764  
     385A      7.299672   386A      7.405043   387A      7.431824  
     388A      7.441991   389A      7.449040   390A      7.469113  
     391A      7.497989   392A      7.519211   393A      7.548703  
     394A      7.631504   395A      7.646950   396A      7.661579  
     397A      7.665282   398A      7.686790   399A      7.714417  
     400A      7.716561   401A      7.740789   402A      7.753544  
     403A      7.774851   404A      7.782568   405A      7.798201  
     406A      7.835445   407A      7.855325   408A      7.897505  
     409A      7.943798   410A      7.993515   411A      8.012743  
     412A      8.033572   413A      8.037015   414A      8.066072  
     415A      8.068057   416A      8.084353   417A      8.187838  
     418A      8.192515   419A      8.251114   420A      8.272376  
     421A      8.310573   422A      8.349427   423A      8.349585  
     424A      8.352348   425A      8.356530   426A      8.384837  
     427A      8.401113   428A      8.422943   429A      8.428045  
     430A      8.431255   431A      8.455267   432A      8.479668  
     433A      8.494359   434A      8.512914   435A      8.539777  
     436A      8.550569   437A      8.575379   438A      8.643986  
     439A      8.649656   440A      8.672892   441A      8.683497  
     442A      8.688205   443A      8.710733   444A      8.730145  
     445A      8.793550   446A      8.793992   447A      8.835252  
     448A      8.843971   449A      8.921795   450A      8.924222  
     451A      8.940037   452A      8.951346   453A      8.961231  
     454A      8.993639   455A      8.997151   456A      9.038605  
     457A      9.059700   458A      9.065216   459A      9.075126  
     460A      9.076307   461A      9.118954   462A      9.125907  
     463A      9.136770   464A      9.138483   465A      9.144262  
     466A      9.146063   467A      9.209760   468A      9.225917  
     469A      9.251690   470A      9.259757   471A      9.274674  
     472A      9.276717   473A      9.297250   474A      9.323192  
     475A      9.385196   476A      9.405209   477A      9.407608  
     478A      9.415101   479A      9.455500   480A      9.456359  
     481A      9.479489   482A      9.535264   483A      9.547064  
     484A      9.569995   485A      9.597094   486A      9.637175  
     487A      9.644762   488A      9.653163   489A      9.673984  
     490A      9.774950   491A      9.818323   492A      9.830996  
     493A      9.838513   494A      9.930796   495A      9.988247  
     496A     10.008660   497A     10.040343   498A     10.055350  
     499A     10.063586   500A     10.202480   501A     10.244300  
     502A     10.265849   503A     10.366038   504A     10.429400  
     505A     10.440606   506A     10.442807   507A     10.455014  
     508A     10.455055   509A     10.539127   510A     10.603517  
     511A     10.608747   512A     10.616647   513A     10.627305  
     514A     10.712998   515A     10.722422   516A     10.793882  
     517A     10.798395   518A     10.871004   519A     10.903608  
     520A     10.954557   521A     10.980229   522A     11.004818  
     523A     11.076477   524A     11.179626   525A     11.191586  
     526A     11.207962   527A     11.240701   528A     11.279575  
     529A     11.293795   530A     11.376776   531A     11.384473  
     532A     11.423715   533A     11.454161   534A     11.455738  
     535A     11.483641   536A     11.602425   537A     11.695705  
     538A     11.766787   539A     11.839091   540A     11.880876  
     541A     11.939718   542A     11.977836   543A     12.023216  
     544A     12.038841   545A     12.246265   546A     12.265917  
     547A     12.341143   548A     12.373511   549A     12.476010  
     550A     12.650472   551A     12.777165   552A     13.082743  
     553A     13.216372   554A     13.358887   555A     13.580480  
     556A     13.682188   557A     13.946898   558A     14.019160  
     559A     14.056167   560A     14.242198   561A     14.479094  
     562A     14.761199   563A     15.002379   564A     15.050750  
     565A     15.501746   566A     15.873532   567A     16.202036  
     568A     17.109946   569A     18.593051   570A     19.139092  
     571A     19.232957   572A     19.504893   573A     19.589239  
     574A     24.748129   575A     30.040067   576A     43.274502  
     577A     43.278314   578A     43.477562   579A     51.555786  
     580A     51.965101   581A     52.108770   582A     52.389520  
     583A     52.560251   584A     69.941201   585A    100.434534  
     586A    236.252454   587A    236.748994   588A    236.915364  
     589A    237.260173   590A    237.481684   591A    318.190756  
     592A    530.817106  

    Final Occupation by Irrep:
              A 
    DOCC [     9 ]
    NA   [     9 ]
    NB   [     9 ]

  @DF-RHF Final Energy:  -460.10658318435895

   => Energetics <=

    Nuclear Repulsion Energy =              6.5786294161364864
    One-Electron Energy =                -648.9447212771178783
    Two-Electron Energy =                 182.2595086766224881
    Total Energy =                       -460.1065831843589535

Computation Completed


Properties will be evaluated at   0.000000,   0.000000,   0.000000 [a0]

Properties computed using the SCF density matrix


 Multipole Moments:

 ------------------------------------------------------------------------------------
     Multipole            Electronic (a.u.)      Nuclear  (a.u.)        Total (a.u.)
 ------------------------------------------------------------------------------------

 L = 1.  Multiply by 2.5417464519 to convert [e a0] to [Debye]
 Dipole X            :          0.0000000            0.0000000            0.0000000
 Dipole Y            :         -0.0000000            0.0000000           -0.0000000
 Dipole Z            :        -94.1152965           93.6053861           -0.5099105
 Magnitude           :                                                    0.5099105

 ------------------------------------------------------------------------------------

*** tstop() called on cmpsrv002 at Thu Sep 19 14:54:56 2024
Module time:
	user time   =      32.25 seconds =       0.54 minutes
	system time =      14.69 seconds =       0.24 minutes
	total time  =       1217 seconds =      20.28 minutes
Total time:
	user time   =      94.87 seconds =       1.58 minutes
	system time =      19.75 seconds =       0.33 minutes
	total time  =       2333 seconds =      38.88 minutes
   => Libint2 <=

    Primary   basis highest AM E, G, H:  6, 6, 3
    Auxiliary basis highest AM E, G, H:  7, 7, 4
    Onebody   basis highest AM E, G, H:  -, -, -
    Solid Harmonics ordering:            Gaussian

*** tstart() called on cmpsrv002
*** at Thu Sep 19 14:54:56 2024

   => Loading Basis Set <=

    Name: THIS_BASIS
    Role: ORBITAL
    Keyword: BASIS
    atoms 1, 3-4, 11-13 entry H          line    15 file /home/vance/anaconda3/envs/p4env/share/psi4/basis/def2-qzvp.gbs 
    atoms 2             entry CL         line   809 file /home/vance/anaconda3/envs/p4env/share/psi4/basis/def2-qzvp.gbs 
    atoms 5-7, 9-10     entry C          line   194 file /home/vance/anaconda3/envs/p4env/share/psi4/basis/def2-qzvp.gbs 
    atoms 8             entry N          line   242 file /home/vance/anaconda3/envs/p4env/share/psi4/basis/def2-qzvp.gbs 


         ---------------------------------------------------------
                       SAPT(DFT): delta HF Monomer B               
         ---------------------------------------------------------
                                   SCF
               by Justin Turney, Rob Parrish, Andy Simmonett
                          and Daniel G. A. Smith
                              RHF Reference
                        4 Threads,   7629 MiB Core
         ---------------------------------------------------------

  ==> Geometry <==

    Molecular point group: c1
    Full point group: C2v

    Geometry (in Angstrom), charge = 0, multiplicity = 1:

       Center              X                  Y                   Z               Mass       
    ------------   -----------------  -----------------  -----------------  -----------------
      Gh(H)           0.000000000000     0.000000000000     1.460389838641     1.007825032230
      Gh(CL)          0.000000000000     0.000000000000     2.827849838641    34.968852682000
         H            0.000000000000    -2.147710000000    -2.473480161359     1.007825032230
         H            0.000000000000    -2.051420000000     0.020049838641     1.007825032230
         C            0.000000000000     0.000000000000    -2.667280161359    12.000000000000
         C            0.000000000000    -1.196400000000    -1.963170161359    12.000000000000
         C            0.000000000000    -1.149310000000    -0.577230161359    12.000000000000
         N            0.000000000000     0.000000000000     0.095759838641    14.003074004430
         C           -0.000000000000     1.149310000000    -0.577230161359    12.000000000000
         C           -0.000000000000     1.196400000000    -1.963170161359    12.000000000000
         H           -0.000000000000     2.051420000000     0.020049838641     1.007825032230
         H           -0.000000000000     2.147710000000    -2.473480161359     1.007825032230
         H            0.000000000000     0.000000000000    -3.747860161359     1.007825032230

  Running in c1 symmetry.

  Rotational constants: A =      0.20108  B =      0.03411  C =      0.02916 [cm^-1]
  Rotational constants: A =   6028.26605  B =   1022.47606  C =    874.19985 [MHz]
  Nuclear repulsion =  206.982930093006985

  Charge       = 0
  Multiplicity = 1
  Electrons    = 42
  Nalpha       = 21
  Nbeta        = 21

  ==> Algorithm <==

  SCF Algorithm Type is DF.
  DIIS enabled.
  MOM disabled.
  Fractional occupation disabled.
  Guess Type is SAD.
  Energy threshold   = 1.00e-08
  Density threshold  = 1.00e-08
  Integral threshold = 1.00e-12

  ==> Primary Basis <==

  Basis Set: THIS_BASIS
    Blend: DEF2-QZVP
    Number of shells: 184
    Number of basis functions: 592
    Number of Cartesian functions: 728
    Spherical Harmonics?: true
    Max angular momentum: 4

   => Loading Basis Set <=

    Name: (THIS_BASIS AUX)
    Role: JKFIT
    Keyword: DF_BASIS_SCF
    atoms 1, 3-4, 11-13 entry H          line    18 file /home/vance/anaconda3/envs/p4env/share/psi4/basis/def2-universal-jkfit.gbs 
    atoms 2             entry CL         line   986 file /home/vance/anaconda3/envs/p4env/share/psi4/basis/def2-universal-jkfit.gbs 
    atoms 5-7, 9-10     entry C          line   198 file /home/vance/anaconda3/envs/p4env/share/psi4/basis/def2-universal-jkfit.gbs 
    atoms 8             entry N          line   258 file /home/vance/anaconda3/envs/p4env/share/psi4/basis/def2-universal-jkfit.gbs 

  ==> Integral Setup <==

  ==> DiskDFJK: Density-Fitted J/K Matrices <==

    J tasked:                  Yes
    K tasked:                  Yes
    wK tasked:                  No
    OpenMP threads:              4
    Integrals threads:           4
    Memory [MiB]:             5722
    Algorithm:                Core
    Integral Cache:           SAVE
    Schwarz Cutoff:          1E-12
    Fitting Condition:       1E-10

   => Auxiliary Basis Set <=

  Basis Set: (THIS_BASIS AUX)
    Blend: DEF2-UNIVERSAL-JKFIT
    Number of shells: 224
    Number of basis functions: 688
    Number of Cartesian functions: 813
    Spherical Harmonics?: true
    Max angular momentum: 4

  Minimum eigenvalue in the overlap matrix is 1.9499612417E-05.
  Reciprocal condition number of the overlap matrix is 1.7552687394E-06.
    Using symmetric orthogonalization.

  ==> Pre-Iterations <==

  SCF Guess: Superposition of Atomic Densities via on-the-fly atomic UHF (no occupation information).

   -------------------------
    Irrep   Nso     Nmo    
   -------------------------
     A        592     592 
   -------------------------
    Total     592     592
   -------------------------

  ==> Iterations <==

                           Total Energy        Delta E     RMS |[F,P]|

   @DF-RHF iter SAD:  -246.24944959552971   -2.46249e+02   0.00000e+00 
   @DF-RHF iter   1:  -246.65244920144511   -4.03000e-01   8.31467e-04 ADIIS/DIIS
   @DF-RHF iter   2:  -246.76972234289630   -1.17273e-01   3.85559e-04 ADIIS/DIIS
   @DF-RHF iter   3:  -246.79372402151407   -2.40017e-02   7.67628e-05 DIIS
   @DF-RHF iter   4:  -246.79514027445259   -1.41625e-03   2.43145e-05 DIIS
   @DF-RHF iter   5:  -246.79524034578179   -1.00071e-04   7.14094e-06 DIIS
   @DF-RHF iter   6:  -246.79525155553512   -1.12098e-05   1.71484e-06 DIIS
   @DF-RHF iter   7:  -246.79525245397986   -8.98445e-07   6.44074e-07 DIIS
   @DF-RHF iter   8:  -246.79525259143256   -1.37453e-07   2.89085e-07 DIIS
   @DF-RHF iter   9:  -246.79525264298525   -5.15527e-08   9.33374e-08 DIIS
   @DF-RHF iter  10:  -246.79525265120216   -8.21692e-09   3.16323e-08 DIIS
   @DF-RHF iter  11:  -246.79525265228904   -1.08687e-09   1.81202e-08 DIIS
   @DF-RHF iter  12:  -246.79525265251263   -2.23594e-10   4.15840e-09 DIIS
  Energy and wave function converged.


  ==> Post-Iterations <==

    Orbital Energies [Eh]
    ---------------------

    Doubly Occupied:                                                      

       1A    -15.560454     2A    -11.272212     3A    -11.272194  
       4A    -11.257401     5A    -11.239967     6A    -11.239912  
       7A     -1.259510     8A     -1.088828     9A     -1.037040  
      10A     -0.858515    11A     -0.858399    12A     -0.723772  
      13A     -0.662707    14A     -0.654408    15A     -0.602460  
      16A     -0.575815    17A     -0.543686    18A     -0.523247  
      19A     -0.413606    20A     -0.383639    21A     -0.349740  

    Virtual:                                                              

      22A      0.097864    23A      0.099380    24A      0.111749  
      25A      0.114048    26A      0.121159    27A      0.142047  
      28A      0.151804    29A      0.176311    30A      0.188411  
      31A      0.206535    32A      0.207450    33A      0.219288  
      34A      0.228891    35A      0.242006    36A      0.247643  
      37A      0.257088    38A      0.265387    39A      0.268625  
      40A      0.298881    41A      0.311477    42A      0.321985  
      43A      0.331258    44A      0.364906    45A      0.376926  
      46A      0.379398    47A      0.398126    48A      0.398914  
      49A      0.411213    50A      0.426765    51A      0.450200  
      52A      0.455888    53A      0.477944    54A      0.479545  
      55A      0.493717    56A      0.503955    57A      0.506762  
      58A      0.516293    59A      0.537989    60A      0.539941  
      61A      0.552938    62A      0.564826    63A      0.565853  
      64A      0.617335    65A      0.631565    66A      0.651337  
      67A      0.652437    68A      0.686769    69A      0.688423  
      70A      0.692053    71A      0.703544    72A      0.741264  
      73A      0.744791    74A      0.759962    75A      0.767485  
      76A      0.777311    77A      0.791093    78A      0.812747  
      79A      0.813424    80A      0.815302    81A      0.841943  
      82A      0.845604    83A      0.867618    84A      0.875051  
      85A      0.881855    86A      0.882027    87A      0.903135  
      88A      0.914070    89A      0.922590    90A      0.925876  
      91A      0.944227    92A      0.950351    93A      0.953181  
      94A      0.960757    95A      0.965358    96A      0.991161  
      97A      1.004578    98A      1.006262    99A      1.032168  
     100A      1.043506   101A      1.048444   102A      1.060044  
     103A      1.064574   104A      1.098882   105A      1.100354  
     106A      1.107077   107A      1.116609   108A      1.121144  
     109A      1.143691   110A      1.176993   111A      1.179684  
     112A      1.188990   113A      1.194349   114A      1.204892  
     115A      1.225259   116A      1.233405   117A      1.249909  
     118A      1.264247   119A      1.273210   120A      1.282013  
     121A      1.293192   122A      1.328716   123A      1.359325  
     124A      1.363330   125A      1.395576   126A      1.410621  
     127A      1.411129   128A      1.433343   129A      1.448164  
     130A      1.502904   131A      1.509130   132A      1.519505  
     133A      1.536986   134A      1.572672   135A      1.610859  
     136A      1.645139   137A      1.683431   138A      1.685352  
     139A      1.697490   140A      1.742510   141A      1.778279  
     142A      1.781591   143A      1.782546   144A      1.814928  
     145A      1.818957   146A      1.847172   147A      1.847565  
     148A      1.853949   149A      1.875634   150A      1.875810  
     151A      1.915343   152A      1.931850   153A      1.943490  
     154A      1.948231   155A      1.982114   156A      2.002352  
     157A      2.014340   158A      2.019493   159A      2.037092  
     160A      2.066342   161A      2.066448   162A      2.072711  
     163A      2.100741   164A      2.111121   165A      2.111696  
     166A      2.128817   167A      2.138536   168A      2.183642  
     169A      2.188786   170A      2.212097   171A      2.213722  
     172A      2.222667   173A      2.227208   174A      2.236022  
     175A      2.246699   176A      2.258569   177A      2.260151  
     178A      2.279154   179A      2.293707   180A      2.303389  
     181A      2.320789   182A      2.346997   183A      2.349251  
     184A      2.350415   185A      2.388937   186A      2.390293  
     187A      2.394370   188A      2.395119   189A      2.435968  
     190A      2.445945   191A      2.447685   192A      2.454233  
     193A      2.456453   194A      2.463798   195A      2.465822  
     196A      2.472736   197A      2.495382   198A      2.498800  
     199A      2.536653   200A      2.538128   201A      2.558328  
     202A      2.574099   203A      2.582490   204A      2.627274  
     205A      2.635408   206A      2.659404   207A      2.662513  
     208A      2.675771   209A      2.689755   210A      2.701905  
     211A      2.717905   212A      2.733445   213A      2.770934  
     214A      2.772475   215A      2.773180   216A      2.774419  
     217A      2.781728   218A      2.793045   219A      2.808204  
     220A      2.844918   221A      2.845827   222A      2.852514  
     223A      2.864900   224A      2.887552   225A      2.913328  
     226A      2.916164   227A      2.917139   228A      2.933419  
     229A      2.936205   230A      2.957639   231A      2.963295  
     232A      3.001494   233A      3.045497   234A      3.051394  
     235A      3.067206   236A      3.072534   237A      3.082561  
     238A      3.103539   239A      3.121523   240A      3.136404  
     241A      3.181862   242A      3.224473   243A      3.248004  
     244A      3.264116   245A      3.305764   246A      3.312162  
     247A      3.325734   248A      3.333039   249A      3.359718  
     250A      3.391868   251A      3.401305   252A      3.471990  
     253A      3.473012   254A      3.489658   255A      3.555934  
     256A      3.600430   257A      3.606853   258A      3.610061  
     259A      3.634338   260A      3.644453   261A      3.646953  
     262A      3.648505   263A      3.692387   264A      3.704964  
     265A      3.713192   266A      3.751932   267A      3.755884  
     268A      3.823977   269A      3.837836   270A      3.846588  
     271A      3.852533   272A      3.872515   273A      3.882851  
     274A      3.960354   275A      3.962866   276A      3.966570  
     277A      3.996818   278A      4.055438   279A      4.058780  
     280A      4.131287   281A      4.201070   282A      4.206414  
     283A      4.216024   284A      4.218776   285A      4.266150  
     286A      4.316829   287A      4.342384   288A      4.370363  
     289A      4.402466   290A      4.405126   291A      4.476473  
     292A      4.514245   293A      4.516890   294A      4.525799  
     295A      4.531971   296A      4.559787   297A      4.570088  
     298A      4.571476   299A      4.576126   300A      4.576474  
     301A      4.676790   302A      4.761234   303A      4.799550  
     304A      4.843868   305A      4.852147   306A      4.871414  
     307A      4.961414   308A      5.020400   309A      5.033313  
     310A      5.112453   311A      5.138412   312A      5.166922  
     313A      5.188767   314A      5.214950   315A      5.245963  
     316A      5.277716   317A      5.284384   318A      5.402970  
     319A      5.412699   320A      5.416218   321A      5.426788  
     322A      5.435054   323A      5.458655   324A      5.464172  
     325A      5.491776   326A      5.564387   327A      5.592234  
     328A      5.613574   329A      5.642764   330A      5.651689  
     331A      5.671968   332A      5.689260   333A      5.691653  
     334A      5.772688   335A      5.781438   336A      5.800785  
     337A      5.802892   338A      5.806341   339A      5.810849  
     340A      5.839357   341A      5.840894   342A      5.860575  
     343A      5.861462   344A      5.862901   345A      5.874477  
     346A      5.884008   347A      5.905875   348A      5.918785  
     349A      5.923324   350A      5.954845   351A      6.008810  
     352A      6.018007   353A      6.033607   354A      6.042140  
     355A      6.074098   356A      6.113284   357A      6.116304  
     358A      6.149250   359A      6.166970   360A      6.206484  
     361A      6.212613   362A      6.226732   363A      6.230143  
     364A      6.262520   365A      6.311128   366A      6.322719  
     367A      6.339430   368A      6.348855   369A      6.358771  
     370A      6.371545   371A      6.382592   372A      6.399905  
     373A      6.430085   374A      6.437616   375A      6.438848  
     376A      6.447675   377A      6.459766   378A      6.464143  
     379A      6.488719   380A      6.498438   381A      6.502176  
     382A      6.506002   383A      6.521452   384A      6.526945  
     385A      6.535365   386A      6.548768   387A      6.571140  
     388A      6.579346   389A      6.591381   390A      6.629317  
     391A      6.632310   392A      6.657845   393A      6.662006  
     394A      6.671237   395A      6.674676   396A      6.678832  
     397A      6.684839   398A      6.694089   399A      6.740320  
     400A      6.747353   401A      6.796398   402A      6.807714  
     403A      6.825831   404A      6.844935   405A      6.856402  
     406A      6.882120   407A      6.919837   408A      6.923802  
     409A      6.925065   410A      6.959860   411A      6.974710  
     412A      7.031824   413A      7.042017   414A      7.046548  
     415A      7.066827   416A      7.067328   417A      7.107497  
     418A      7.109969   419A      7.130225   420A      7.161623  
     421A      7.194659   422A      7.200908   423A      7.278942  
     424A      7.297234   425A      7.348616   426A      7.358110  
     427A      7.360741   428A      7.365772   429A      7.429753  
     430A      7.435319   431A      7.475981   432A      7.476760  
     433A      7.519019   434A      7.525446   435A      7.562653  
     436A      7.566995   437A      7.594935   438A      7.633696  
     439A      7.751265   440A      7.758158   441A      7.800994  
     442A      7.809134   443A      7.817986   444A      7.845318  
     445A      7.877433   446A      7.914546   447A      7.914673  
     448A      7.917252   449A      7.924886   450A      7.973739  
     451A      8.010243   452A      8.018121   453A      8.018461  
     454A      8.046621   455A      8.117157   456A      8.127417  
     457A      8.143300   458A      8.149767   459A      8.183540  
     460A      8.188721   461A      8.208392   462A      8.240328  
     463A      8.299660   464A      8.317972   465A      8.328771  
     466A      8.361691   467A      8.364136   468A      8.387659  
     469A      8.395203   470A      8.427538   471A      8.450113  
     472A      8.505386   473A      8.508484   474A      8.516975  
     475A      8.526445   476A      8.541615   477A      8.548169  
     478A      8.615924   479A      8.624902   480A      8.625620  
     481A      8.704909   482A      8.714729   483A      8.724844  
     484A      8.733263   485A      8.748088   486A      8.775605  
     487A      8.778072   488A      8.800090   489A      8.827923  
     490A      8.840978   491A      8.845353   492A      8.866457  
     493A      8.886464   494A      8.890680   495A      8.917607  
     496A      8.932058   497A      8.939470   498A      8.995721  
     499A      9.017788   500A      9.044829   501A      9.073055  
     502A      9.142632   503A      9.156198   504A      9.158758  
     505A      9.172202   506A      9.181714   507A      9.208822  
     508A      9.254690   509A      9.331542   510A      9.380085  
     511A      9.390288   512A      9.532372   513A      9.586499  
     514A      9.604081   515A      9.679376   516A      9.747736  
     517A      9.759008   518A      9.767685   519A      9.887037  
     520A      9.887375   521A      9.891491   522A      9.967619  
     523A     10.016959   524A     10.031830   525A     10.067316  
     526A     10.119722   527A     10.136407   528A     10.154237  
     529A     10.174859   530A     10.197198   531A     10.242335  
     532A     10.266848   533A     10.352159   534A     10.360979  
     535A     10.388776   536A     10.479242   537A     10.497836  
     538A     10.554601   539A     10.609351   540A     10.615911  
     541A     10.696819   542A     10.744675   543A     10.761992  
     544A     10.783029   545A     10.837978   546A     10.937972  
     547A     11.057784   548A     11.177288   549A     11.209828  
     550A     11.219267   551A     11.354783   552A     11.492049  
     553A     11.625267   554A     11.995295   555A     12.299059  
     556A     12.499838   557A     12.600124   558A     12.707387  
     559A     12.864482   560A     13.161055   561A     13.194033  
     562A     13.410402   563A     13.439789   564A     13.712050  
     565A     15.608847   566A     21.737414   567A     21.754021  
     568A     21.763498   569A     21.764514   570A     21.900078  
     571A     21.941484   572A     22.048232   573A     22.757010  
     574A     29.007835   575A     29.505852   576A     29.681977  
     577A     30.026808   578A     30.224766   579A     35.901159  
     580A     38.984530   581A     85.744366   582A    118.208991  
     583A    118.209718   584A    118.254783   585A    149.579854  
     586A    150.062235   587A    150.217383   588A    150.562729  
     589A    150.778323   590A    200.130028   591A    234.244214  
     592A   1052.257050  

    Final Occupation by Irrep:
              A 
    DOCC [    21 ]
    NA   [    21 ]
    NB   [    21 ]

  @DF-RHF Final Energy:  -246.79525265251263

   => Energetics <=

    Nuclear Repulsion Energy =            206.9829300930069849
    One-Electron Energy =                -742.8013363440496732
    Two-Electron Energy =                 289.0231535985300297
    Total Energy =                       -246.7952526525126586

Computation Completed


Properties will be evaluated at   0.000000,   0.000000,   0.000000 [a0]

Properties computed using the SCF density matrix


 Multipole Moments:

 ------------------------------------------------------------------------------------
     Multipole            Electronic (a.u.)      Nuclear  (a.u.)        Total (a.u.)
 ------------------------------------------------------------------------------------

 L = 1.  Multiply by 2.5417464519 to convert [e a0] to [Debye]
 Dipole X            :         -0.0000000           -0.0000000           -0.0000000
 Dipole Y            :          0.0000000           -0.0000000            0.0000000
 Dipole Z            :        102.0514877         -102.9388373           -0.8873496
 Magnitude           :                                                    0.8873496

 ------------------------------------------------------------------------------------

*** tstop() called on cmpsrv002 at Thu Sep 19 15:10:02 2024
Module time:
	user time   =      77.92 seconds =       1.30 minutes
	system time =       4.45 seconds =       0.07 minutes
	total time  =        906 seconds =      15.10 minutes
Total time:
	user time   =     172.79 seconds =       2.88 minutes
	system time =      24.20 seconds =       0.40 minutes
	total time  =       3239 seconds =      53.98 minutes

         ---------------------------------------------------------
                        SAPT(DFT): delta HF Segment                

                   by Daniel G. A. Smith and Rob Parrish           
         ---------------------------------------------------------


  ==> Preparing SAPT Data Cache <== 

  ==> DiskDFJK: Density-Fitted J/K Matrices <==

    J tasked:                  Yes
    K tasked:                  Yes
    wK tasked:                  No
    OpenMP threads:              4
    Integrals threads:           4
    Memory [MiB]:             5722
    Algorithm:                Core
    Integral Cache:           SAVE
    Schwarz Cutoff:          1E-12
    Fitting Condition:       1E-10

   => Auxiliary Basis Set <=

  Basis Set: (THIS_BASIS AUX)
    Blend: DEF2-UNIVERSAL-JKFIT
    Number of shells: 224
    Number of basis functions: 688
    Number of Cartesian functions: 813
    Spherical Harmonics?: true
    Max angular momentum: 4


  ==> E10 Electostatics <== 

    Elst10,r                        -68.81958757 [mEh]

  ==> E10 Exchange <== 

    Exch10(S^2)                     116.62528323 [mEh]
    Exch10                          126.44903053 [mEh]

  ==> E20 Induction <== 

   => Uncoupled Induction <= 

    Ind20,u (A<-B)                  -25.83363794 [mEh]
    Ind20,u (A->B)                  -35.61509609 [mEh]
    Ind20,u                         -61.44873403 [mEh]
    Exch-Ind20,u (A<-B)              19.58869908 [mEh]
    Exch-Ind20,u (A->B)              12.98286987 [mEh]
    Exch-Ind20,u                     32.57156895 [mEh]
    Exch-Ind20,u (A<-B) (S^inf)      23.41876900 [mEh]
    Exch-Ind20,u (A->B) (S^inf)      16.28455274 [mEh]
    Exch-Ind20,u (S^inf)             39.70332174 [mEh]

   => Coupled Induction <= 

   ---------------------------------------------------
              SAPT Coupled Induction Solver           
   ---------------------------------------------------
    Maxiter             =          20
    Convergence         =   1.000E-06
   ---------------------------------------------------
     Iter       (A<-B)           (B->A)      Time [s]
   ---------------------------------------------------
    Guess    1.204730e-01     1.765851e-01          5
        1    3.778871e-02     8.974652e-02         10
        2    7.374251e-03     2.220750e-02         17
        3    1.639573e-03     9.959488e-03         23
        4    5.423216e-04     4.368692e-03         28
        5    1.357081e-04     1.969314e-03         37
        6    3.584257e-05     6.235824e-04         44
        7    6.426826e-06     2.060158e-04         51
        8    4.957260e-07*    4.203984e-05         57
        9    4.957260e-07*    1.120917e-05         61
       10    4.957260e-07*    3.555728e-06         64
       11    4.957260e-07*    9.964243e-07*        68
   ---------------------------------------------------

    Ind20,r (A<-B)                  -30.88874749 [mEh]
    Ind20,r (A->B)                  -44.89210356 [mEh]
    Ind20,r                         -75.78085105 [mEh]
    Exch-Ind20,r (A<-B)              24.17458755 [mEh]
    Exch-Ind20,r (A->B)              18.70644631 [mEh]
    Exch-Ind20,r                     42.88103386 [mEh]
    Exch-Ind20,r (A<-B) (S^inf)      29.05318376 [mEh]
    Exch-Ind20,r (A->B) (S^inf)      23.63748904 [mEh]
    Exch-Ind20,r (S^inf)             52.69067280 [mEh]

   Partial SAPT(HF) Results, to compute Delta HF (dHF)
  ---------------------------------------------------------------------------------------------------------
    Electrostatics                  -68.81958757 [mEh]    -43.18494318 [kcal/mol]   -180.68580227 [kJ/mol]
      Elst10,r                      -68.81958757 [mEh]    -43.18494318 [kcal/mol]   -180.68580227 [kJ/mol]

    Exchange                        126.44903053 [mEh]     79.34796461 [kcal/mol]    331.99188393 [kJ/mol]
      Exch10                        126.44903053 [mEh]     79.34796461 [kcal/mol]    331.99188393 [kJ/mol]
      Exch10(S^2)                   116.62528323 [mEh]     73.18347011 [kcal/mol]    306.19963894 [kJ/mol]

    Induction (no dHF)              -32.89981719 [mEh]    -20.64494697 [kcal/mol]    -86.37845813 [kJ/mol]
      Ind20,r                       -75.78085105 [mEh]    -47.55320197 [kcal/mol]   -198.96259702 [kJ/mol]
      Exch-Ind20,r                   42.88103386 [mEh]     26.90825499 [kcal/mol]    112.58413889 [kJ/mol]
      Induction (A<-B) (no dHF)      -6.71415994 [mEh]     -4.21319897 [kcal/mol]    -17.62802450 [kJ/mol]
      Induction (A->B) (no dHF)     -26.18565725 [mEh]    -16.43174800 [kcal/mol]    -68.75043363 [kJ/mol]

    Subtotal SAPT(HF)                24.72962577 [mEh]     15.51807446 [kcal/mol]     64.92762352 [kJ/mol]
    Total HF                         -3.99666188 [mEh]     -2.50794319 [kcal/mol]    -10.49323431 [kJ/mol]
    Delta HF                        -28.72628765 [mEh]    -18.02601765 [kcal/mol]    -75.42085783 [kJ/mol]
  ---------------------------------------------------------------------------------------------------------
   Partial SAPT(HF) Results, alternate SAPT0-like display
  ---------------------------------------------------------------------------------------------------------
    Induction                       -61.62610484 [mEh]    -38.67096462 [kcal/mol]   -161.79931596 [kJ/mol]
      Ind20,r                       -75.78085105 [mEh]    -47.55320197 [kcal/mol]   -198.96259702 [kJ/mol]
      Exch-Ind20,r                   42.88103386 [mEh]     26.90825499 [kcal/mol]    112.58413889 [kJ/mol]
      delta HF,r (2)                -28.72628765 [mEh]    -18.02601765 [kcal/mol]    -75.42085783 [kJ/mol]
      Induction (A<-B)              -12.57659039 [mEh]     -7.89192962 [kcal/mol]    -33.01983351 [kJ/mol]
      Induction (A->B)              -49.04951445 [mEh]    -30.77903500 [kcal/mol]   -128.77948245 [kJ/mol]
  ---------------------------------------------------------------------------------------------------------
   => Libint2 <=

    Primary   basis highest AM E, G, H:  6, 6, 3
    Auxiliary basis highest AM E, G, H:  7, 7, 4
    Onebody   basis highest AM E, G, H:  -, -, -
    Solid Harmonics ordering:            Gaussian

*** tstart() called on cmpsrv002
*** at Thu Sep 19 15:11:47 2024

   => Loading Basis Set <=

    Name: THIS_BASIS
    Role: ORBITAL
    Keyword: BASIS
    atoms 1, 3-4, 11-13 entry H          line    15 file /home/vance/anaconda3/envs/p4env/share/psi4/basis/def2-qzvp.gbs 
    atoms 2             entry CL         line   809 file /home/vance/anaconda3/envs/p4env/share/psi4/basis/def2-qzvp.gbs 
    atoms 5-7, 9-10     entry C          line   194 file /home/vance/anaconda3/envs/p4env/share/psi4/basis/def2-qzvp.gbs 
    atoms 8             entry N          line   242 file /home/vance/anaconda3/envs/p4env/share/psi4/basis/def2-qzvp.gbs 


         ---------------------------------------------------------
                          SAPT(DFT): DFT Monomer A                 
         ---------------------------------------------------------
                                   SCF
               by Justin Turney, Rob Parrish, Andy Simmonett
                          and Daniel G. A. Smith
                              RKS Reference
                        4 Threads,   7629 MiB Core
         ---------------------------------------------------------

  ==> Geometry <==

    Molecular point group: c1
    Full point group: C2v

    Geometry (in Angstrom), charge = 0, multiplicity = 1:

       Center              X                  Y                   Z               Mass       
    ------------   -----------------  -----------------  -----------------  -----------------
         H            0.000000000000     0.000000000000     1.460389838641     1.007825032230
         CL           0.000000000000     0.000000000000     2.827849838641    34.968852682000
      Gh(H)           0.000000000000    -2.147710000000    -2.473480161359     1.007825032230
      Gh(H)           0.000000000000    -2.051420000000     0.020049838641     1.007825032230
      Gh(C)           0.000000000000     0.000000000000    -2.667280161359    12.000000000000
      Gh(C)           0.000000000000    -1.196400000000    -1.963170161359    12.000000000000
      Gh(C)           0.000000000000    -1.149310000000    -0.577230161359    12.000000000000
      Gh(N)           0.000000000000     0.000000000000     0.095759838641    14.003074004430
      Gh(C)          -0.000000000000     1.149310000000    -0.577230161359    12.000000000000
      Gh(C)          -0.000000000000     1.196400000000    -1.963170161359    12.000000000000
      Gh(H)          -0.000000000000     2.051420000000     0.020049838641     1.007825032230
      Gh(H)          -0.000000000000     2.147710000000    -2.473480161359     1.007825032230
      Gh(H)           0.000000000000     0.000000000000    -3.747860161359     1.007825032230

  Running in c1 symmetry.

  Rotational constants: A =      0.20108  B =      0.03411  C =      0.02916 [cm^-1]
  Rotational constants: A =   6028.26605  B =   1022.47606  C =    874.19985 [MHz]
  Nuclear repulsion =    6.578629416136486

  Charge       = 0
  Multiplicity = 1
  Electrons    = 18
  Nalpha       = 9
  Nbeta        = 9

  ==> Algorithm <==

  SCF Algorithm Type is DF.
  DIIS enabled.
  MOM disabled.
  Fractional occupation disabled.
  Guess Type is SAD.
  Energy threshold   = 1.00e-08
  Density threshold  = 1.00e-08
  Integral threshold = 1.00e-12

  ==> Primary Basis <==

  Basis Set: THIS_BASIS
    Blend: DEF2-QZVP
    Number of shells: 184
    Number of basis functions: 592
    Number of Cartesian functions: 728
    Spherical Harmonics?: true
    Max angular momentum: 4

  ==> DFT Potential <==

   => LibXC <=

    Version 6.2.2
[...]
     187A      2.108287   188A      2.117233   189A      2.122573  
     190A      2.153616   191A      2.172858   192A      2.173390  
     193A      2.178299   194A      2.190733   195A      2.211009  
     196A      2.235478   197A      2.236600   198A      2.268407  
     199A      2.274543   200A      2.296858   201A      2.304404  
     202A      2.312023   203A      2.313109   204A      2.352212  
     205A      2.355279   206A      2.357115   207A      2.357269  
     208A      2.376844   209A      2.397538   210A      2.399300  
     211A      2.406423   212A      2.455465   213A      2.460847  
     214A      2.460883   215A      2.470122   216A      2.475351  
     217A      2.476093   218A      2.480315   219A      2.503010  
     220A      2.532837   221A      2.543041   222A      2.545416  
     223A      2.550839   224A      2.572659   225A      2.583559  
     226A      2.596176   227A      2.600140   228A      2.627040  
     229A      2.630248   230A      2.632938   231A      2.652623  
     232A      2.676761   233A      2.717159   234A      2.735708  
     235A      2.736647   236A      2.754912   237A      2.757447  
     238A      2.783168   239A      2.817717   240A      2.831019  
     241A      2.876000   242A      2.903306   243A      2.923004  
     244A      2.923991   245A      2.974888   246A      2.976179  
     247A      2.987416   248A      3.009868   249A      3.042475  
     250A      3.046276   251A      3.048473   252A      3.132378  
     253A      3.165673   254A      3.168590   255A      3.214678  
     256A      3.240061   257A      3.245512   258A      3.252959  
     259A      3.288650   260A      3.299658   261A      3.299691  
     262A      3.308954   263A      3.316704   264A      3.344590  
     265A      3.350970   266A      3.375006   267A      3.419964  
     268A      3.444351   269A      3.468542   270A      3.474278  
     271A      3.506944   272A      3.507612   273A      3.511900  
     274A      3.571358   275A      3.597932   276A      3.605014  
     277A      3.606366   278A      3.660768   279A      3.664942  
     280A      3.736532   281A      3.807079   282A      3.816580  
     283A      3.838075   284A      3.838520   285A      3.878894  
     286A      3.923795   287A      3.957286   288A      3.971647  
     289A      4.006379   290A      4.035556   291A      4.090856  
     292A      4.117013   293A      4.123370   294A      4.131536  
     295A      4.170053   296A      4.221506   297A      4.306676  
     298A      4.388763   299A      4.426781   300A      4.430433  
     301A      4.432065   302A      4.447393   303A      4.447552  
     304A      4.478302   305A      4.541786   306A      4.604968  
     307A      4.608798   308A      4.611745   309A      4.621000  
     310A      4.692872   311A      4.726089   312A      4.763438  
     313A      4.799172   314A      4.800431   315A      4.820859  
     316A      4.849368   317A      4.852860   318A      4.983438  
     319A      4.983848   320A      4.988389   321A      4.998727  
     322A      5.040095   323A      5.089906   324A      5.133651  
     325A      5.163393   326A      5.180895   327A      5.195819  
     328A      5.229561   329A      5.264642   330A      5.270823  
     331A      5.272377   332A      5.319183   333A      5.320174  
     334A      5.348889   335A      5.349729   336A      5.372564  
     337A      5.391034   338A      5.427034   339A      5.449437  
     340A      5.460049   341A      5.460050   342A      5.475968  
     343A      5.545490   344A      5.559212   345A      5.581457  
     346A      5.581597   347A      5.582172   348A      5.620928  
     349A      5.636339   350A      5.666702   351A      5.696760  
     352A      5.712579   353A      5.713160   354A      5.714080  
     355A      5.733893   356A      5.743932   357A      5.758364  
     358A      5.763127   359A      5.764113   360A      5.785646  
     361A      5.792264   362A      5.832303   363A      5.836521  
     364A      5.879054   365A      5.919168   366A      5.922297  
     367A      5.936920   368A      5.940817   369A      5.941898  
     370A      5.981136   371A      5.989857   372A      5.993068  
     373A      5.996793   374A      6.025453   375A      6.026148  
     376A      6.045225   377A      6.067098   378A      6.081592  
     379A      6.084444   380A      6.097056   381A      6.113967  
     382A      6.119781   383A      6.124076   384A      6.132972  
     385A      6.185884   386A      6.192636   387A      6.200614  
     388A      6.205914   389A      6.213023   390A      6.217450  
     391A      6.223416   392A      6.237400   393A      6.246382  
     394A      6.262835   395A      6.277388   396A      6.288993  
     397A      6.303913   398A      6.305381   399A      6.340459  
     400A      6.358437   401A      6.396731   402A      6.414896  
     403A      6.415977   404A      6.422092   405A      6.468354  
     406A      6.481032   407A      6.482973   408A      6.499094  
     409A      6.557857   410A      6.572996   411A      6.579249  
     412A      6.582151   413A      6.593720   414A      6.622415  
     415A      6.627099   416A      6.648825   417A      6.654926  
     418A      6.663569   419A      6.709228   420A      6.719452  
     421A      6.730433   422A      6.737836   423A      6.852766  
     424A      6.857227   425A      6.919294   426A      6.927806  
     427A      6.936857   428A      6.967134   429A      6.973123  
     430A      7.015332   431A      7.036320   432A      7.038243  
     433A      7.057154   434A      7.099191   435A      7.123070  
     436A      7.126677   437A      7.158155   438A      7.173225  
     439A      7.284966   440A      7.356555   441A      7.362821  
     442A      7.373060   443A      7.380362   444A      7.414182  
     445A      7.428349   446A      7.444915   447A      7.470794  
     448A      7.482871   449A      7.502655   450A      7.554753  
     451A      7.570886   452A      7.582672   453A      7.592747  
     454A      7.628580   455A      7.657667   456A      7.666132  
     457A      7.698144   458A      7.729999   459A      7.743842  
     460A      7.755306   461A      7.808465   462A      7.822806  
     463A      7.851207   464A      7.868082   465A      7.910645  
     466A      7.926028   467A      7.929289   468A      7.951878  
     469A      7.960715   470A      7.988191   471A      7.992379  
     472A      8.059070   473A      8.061030   474A      8.067051  
     475A      8.086809   476A      8.089767   477A      8.116133  
     478A      8.167250   479A      8.191095   480A      8.238914  
     481A      8.264570   482A      8.266272   483A      8.271239  
     484A      8.290273   485A      8.290836   486A      8.333875  
     487A      8.339076   488A      8.350999   489A      8.367459  
     490A      8.396351   491A      8.396939   492A      8.409546  
     493A      8.421901   494A      8.445683   495A      8.466031  
     496A      8.474962   497A      8.491174   498A      8.528052  
     499A      8.561806   500A      8.566282   501A      8.649525  
     502A      8.687418   503A      8.693237   504A      8.719079  
     505A      8.757032   506A      8.774491   507A      8.778595  
     508A      8.877876   509A      8.901889   510A      8.928429  
     511A      8.930676   512A      9.054283   513A      9.111264  
     514A      9.123871   515A      9.188374   516A      9.297197  
     517A      9.298575   518A      9.340270   519A      9.395016  
     520A      9.399494   521A      9.451554   522A      9.457848  
     523A      9.532315   524A      9.603793   525A      9.622892  
     526A      9.646312   527A      9.686629   528A      9.697379  
     529A      9.703984   530A      9.723910   531A      9.766997  
     532A      9.792528   533A      9.875487   534A      9.889956  
     535A      9.913772   536A     10.005273   537A     10.015949  
     538A     10.061487   539A     10.075067   540A     10.112902  
     541A     10.180259   542A     10.275089   543A     10.307620  
     544A     10.310023   545A     10.317532   546A     10.397283  
     547A     10.512790   548A     10.637020   549A     10.637582  
     550A     10.697695   551A     10.843361   552A     10.991997  
     553A     11.112304   554A     11.543423   555A     11.780796  
     556A     11.960042   557A     12.005560   558A     12.233160  
     559A     12.297001   560A     12.653116   561A     12.662528  
     562A     12.906353   563A     12.967032   564A     13.183623  
     565A     15.472134   566A     21.604249   567A     21.620279  
     568A     21.630174   569A     21.630770   570A     21.766564  
     571A     21.807908   572A     21.915853   573A     22.619257  
     574A     28.037433   575A     28.534807   576A     28.714388  
     577A     29.055311   578A     29.251949   579A     35.765328  
     580A     37.851239   581A     85.609548   582A    118.073457  
     583A    118.074161   584A    118.119285   585A    147.252097  
     586A    147.734138   587A    147.892230   588A    148.233816  
     589A    148.447983   590A    197.364112   591A    234.109179  
     592A   1052.126149  

    Final Occupation by Irrep:
              A 
    DOCC [    21 ]
    NA   [    21 ]
    NB   [    21 ]

  @DF-RKS Final Energy:  -248.09021113217014

   => Energetics <=

    Nuclear Repulsion Energy =            206.9829300930069849
    One-Electron Energy =                -743.5466692328498084
    Two-Electron Energy =                 315.5182128002503532
    DFT Exchange-Correlation Energy =     -27.0446847925776304
    Empirical Dispersion Energy =           0.0000000000000000
    VV10 Nonlocal Energy =                  0.0000000000000000
    Total Energy =                       -248.0902111321701113

Computation Completed


Properties will be evaluated at   0.000000,   0.000000,   0.000000 [a0]

Properties computed using the SCF density matrix


 Multipole Moments:

 ------------------------------------------------------------------------------------
     Multipole            Electronic (a.u.)      Nuclear  (a.u.)        Total (a.u.)
 ------------------------------------------------------------------------------------

 L = 1.  Multiply by 2.5417464519 to convert [e a0] to [Debye]
 Dipole X            :         -0.0000000           -0.0000000           -0.0000000
 Dipole Y            :          0.0000000           -0.0000000            0.0000000
 Dipole Z            :        102.0718958         -102.9388373           -0.8669415
 Magnitude           :                                                    0.8669415

 ------------------------------------------------------------------------------------

*** tstop() called on cmpsrv002 at Thu Sep 19 15:26:07 2024
Module time:
	user time   =     405.03 seconds =       6.75 minutes
	system time =       8.35 seconds =       0.14 minutes
	total time  =        401 seconds =       6.68 minutes
Total time:
	user time   =     991.50 seconds =      16.52 minutes
	system time =      41.83 seconds =       0.70 minutes
	total time  =       4204 seconds =      70.07 minutes

         ---------------------------------------------------------
               SAPT(DFT): Intermolecular Interaction Segment       

                   by Daniel G. A. Smith and Rob Parrish           
         ---------------------------------------------------------

  ==> Algorithm <==

   SAPT DFT Functional             PBE0
   Monomer A GRAC Shift        0.116251
   Monomer B GRAC Shift        0.074627
   Delta HF                        True
   JK Algorithm                      DF

  ==> Preparing SAPT Data Cache <== 

  ==> DiskDFJK: Density-Fitted J/K Matrices <==

    J tasked:                  Yes
    K tasked:                  Yes
    wK tasked:                  No
    OpenMP threads:              4
    Integrals threads:           4
    Memory [MiB]:             2688
    Algorithm:                Core
    Integral Cache:           SAVE
    Schwarz Cutoff:          1E-12
    Fitting Condition:       1E-10

   => Auxiliary Basis Set <=

  Basis Set: (THIS_BASIS AUX)
    Blend: DEF2-UNIVERSAL-JKFIT
    Number of shells: 224
    Number of basis functions: 688
    Number of Cartesian functions: 813
    Spherical Harmonics?: true
    Max angular momentum: 4


  ==> E10 Electostatics <== 

    Elst10,r                        -66.34895345 [mEh]

  ==> E10 Exchange <== 

    Exch10(S^2)                     117.69912662 [mEh]
    Exch10                          127.61875812 [mEh]

  ==> E20 Induction <== 

   => Uncoupled Induction <= 

    Ind20,u (A<-B)                  -31.68423220 [mEh]
    Ind20,u (A->B)                  -48.54392234 [mEh]
    Ind20,u                         -80.22815454 [mEh]
    Exch-Ind20,u (A<-B)              25.05136799 [mEh]
    Exch-Ind20,u (A->B)              20.14029364 [mEh]
    Exch-Ind20,u                     45.19166163 [mEh]
    Exch-Ind20,u (A<-B) (S^inf)      30.01376016 [mEh]
    Exch-Ind20,u (A->B) (S^inf)      24.94633944 [mEh]
    Exch-Ind20,u (S^inf)             54.96009960 [mEh]

   => Coupled Induction <= 

   ---------------------------------------------------
              SAPT Coupled Induction Solver           
   ---------------------------------------------------
    Maxiter             =          20
    Convergence         =   1.000E-06
   ---------------------------------------------------
     Iter       (A<-B)           (B->A)      Time [s]
   ---------------------------------------------------
    Guess    1.126901e-01     2.279682e-01         37
        1    3.054988e-02     7.543152e-02         73
        2    5.370578e-03     2.457334e-02        113
        3    1.898454e-03     8.757722e-03        154
        4    2.112637e-04     1.722336e-03        208
        5    1.571620e-05     5.401018e-04        279
        6    1.465677e-06     9.886694e-05        356
        7    2.138859e-07*    2.062192e-05        422
        8    2.138859e-07*    7.307732e-06        445
        9    2.138859e-07*    1.664167e-06        480
       10    2.138859e-07*    3.509093e-07*       515
   ---------------------------------------------------

    Ind20,r (A<-B)                  -33.35920068 [mEh]
    Ind20,r (A->B)                  -50.38529471 [mEh]
    Ind20,r                         -83.74449539 [mEh]
    Exch-Ind20,r (A<-B)              26.51571612 [mEh]
    Exch-Ind20,r (A->B)              23.92737453 [mEh]
    Exch-Ind20,r                     50.44309066 [mEh]
    Exch-Ind20,r (A<-B) (S^inf)      31.79794701 [mEh]
    Exch-Ind20,r (A->B) (S^inf)      29.58959221 [mEh]
    Exch-Ind20,r (S^inf)             61.38753922 [mEh]
   => Loading Basis Set <=

    Name: (THIS_BASIS AUX)
    Role: RIFIT
    Keyword: DF_BASIS_MP2
    atoms 1, 3-4, 11-13 entry H          line    23 file /home/vance/anaconda3/envs/p4env/share/psi4/basis/def2-qzvp-ri.gbs 
    atoms 2             entry CL         line  1113 file /home/vance/anaconda3/envs/p4env/share/psi4/basis/def2-qzvp-ri.gbs 
    atoms 5-7, 9-10     entry C          line   269 file /home/vance/anaconda3/envs/p4env/share/psi4/basis/def2-qzvp-ri.gbs 
    atoms 8             entry N          line   337 file /home/vance/anaconda3/envs/p4env/share/psi4/basis/def2-qzvp-ri.gbs 



  ==> E20 Dispersion (CHF FDDS) <== 

   Legendre Points:          10
   Lambda Shift:          0.300
   Fxc Kernal:             ALDA
   (P|Fxc|Q) Thresh:  1.000e-06
  DFHelper Memory: AOs need 3.175 GiB; user supplied 5.960 GiB. 
  Using in-core AOs.

  ==> DFHelper <==
    NBF:                             592
    NAux:                           1349
    Schwarz Cutoff:                1E-12
    Mask sparsity (%):                13
    DFH Avail. Memory [GiB]:       5.960
    OpenMP threads:                    4
    Algorithm:                    DIRECT
    AO Core:                        True
    MO Core:                       False
    Hold Metric:                   False
    Metric Power:                  0.000
    Fitting Condition:             1E-12
    Q Shell Max:                      11


  DFHelper Memory: AOs need 3.633 GiB; user supplied 5.960 GiB. 
  Using in-core AOs.


   => Time Integration <= 

       Omega       Weight       Disp20,u         Disp20   time [s]
   2.269e+01    6.667e-02      8.302e-04      7.825e-04          5
   4.147e+00    1.495e-01      1.198e-02      1.088e-02          9
   1.572e+00    2.191e-01      3.149e-02      2.616e-02         13
   7.589e-01    2.693e-01      4.825e-02      3.508e-02         17
   4.049e-01    2.955e-01      5.218e-02      3.307e-02         21
   2.223e-01    2.955e-01      4.381e-02      2.510e-02         24
   1.186e-01    2.693e-01      3.112e-02      1.686e-02         29
   5.727e-02    2.191e-01      1.982e-02      1.050e-02         32
   2.170e-02    1.495e-01      1.118e-02      5.885e-03         37
   3.966e-03    6.667e-02      4.469e-03      2.349e-03         41

    Disp20,u                        -40.60644760 [mEh]
    Disp20                          -26.52521996 [mEh]

  ==> E20 Dispersion (MP2) <== 


    Disp20 (MP2)                    -40.43814713 [mEh]
    Exch-Disp20,u                     8.08073135 [mEh]
    Scaling Scheme                    FIXED
    Scaling Factor                    0.770
    Est. Exch-Disp20,r                6.22216314 [mEh]

   SAPT(DFT) Results
  ---------------------------------------------------------------------------------------------------------
    Electrostatics                  -66.34895345 [mEh]    -41.63459687 [kcal/mol]   -174.19915329 [kJ/mol]
      Elst1,r                       -66.34895345 [mEh]    -41.63459687 [kcal/mol]   -174.19915329 [kJ/mol]

    Exchange                        127.61875812 [mEh]     80.08197975 [kcal/mol]    335.06300327 [kJ/mol]
      Exch1                         127.61875812 [mEh]     80.08197975 [kcal/mol]    335.06300327 [kJ/mol]
      Exch1(S^2)                    117.69912662 [mEh]     73.85731701 [kcal/mol]    309.01901436 [kJ/mol]

    Induction                       -62.02769238 [mEh]    -38.92296461 [kcal/mol]   -162.85368391 [kJ/mol]
      Ind2,r                        -83.74449539 [mEh]    -52.55046423 [kcal/mol]   -219.87114236 [kJ/mol]
      Exch-Ind2,r                    50.44309066 [mEh]     31.65351727 [kcal/mol]    132.43831628 [kJ/mol]
      Induction (A<-B)               -6.84348455 [mEh]     -4.29435139 [kcal/mol]    -17.96756622 [kJ/mol]
      Induction (A->B)              -26.45792018 [mEh]    -16.60259557 [kcal/mol]    -69.46525986 [kJ/mol]
      delta HF,r (2)                -28.72628765 [mEh]    -18.02601765 [kcal/mol]    -75.42085783 [kJ/mol]

    Dispersion                      -20.30305682 [mEh]    -12.74036050 [kcal/mol]    -53.30566833 [kJ/mol]
      Disp2,r                       -26.52521996 [mEh]    -16.64482682 [kcal/mol]    -69.64195541 [kJ/mol]
      Disp2,u                       -40.43814713 [mEh]    -25.37532043 [kcal/mol]   -106.17034066 [kJ/mol]
      Est. Exch-Disp2,r               6.22216314 [mEh]      3.90446632 [kcal/mol]     16.33628708 [kJ/mol]
      Exch-Disp2,u                    8.08073135 [mEh]      5.07073548 [kcal/mol]     21.21595725 [kJ/mol]

    Total SAPT(DFT)                 -21.06094454 [mEh]    -13.21594222 [kcal/mol]    -55.29550226 [kJ/mol]
  ---------------------------------------------------------------------------------------------------------

*** tstop() called on cmpsrv002 at Thu Sep 19 16:40:42 2024
Module time:
	user time   =    2829.33 seconds =      47.16 minutes
	system time =      74.99 seconds =       1.25 minutes
	total time  =       4876 seconds =      81.27 minutes
Total time:
	user time   =    3415.80 seconds =      56.93 minutes
	system time =     108.47 seconds =       1.81 minutes
	total time  =       8679 seconds =     144.65 minutes

    Psi4 stopped on: Thursday, 19 September 2024 04:40PM
    Psi4 wall time for execution: 2:24:39.43

*** Psi4 exiting successfully. Buy a developer a beer!
