
    -----------------------------------------------------------------------
          Psi4: An Open-Source Ab Initio Electronic Structure Package
                               Psi4 1.9.1 release

                         Git: Rev {} zzzzzzz 


    D. G. A. Smith, L. A. Burns, A. C. Simmonett, R. M. Parrish,
    M. C. Schieber, R. Galvelis, P. Kraus, H. Kruse, R. Di Remigio,
    A. Alenaizan, A. M. James, S. Lehtola, J. P. Misiewicz, M. Scheurer,
    R. A. Shaw, J. B. Schriber, Y. Xie, Z. L. Glick, D. A. Sirianni,
    J. S. O'Brien, J. M. Waldrop, A. Kumar, E. G. Hohenstein,
    B. P. Pritchard, B. R. Brooks, H. F. Schaefer III, A. Yu. Sokolov,
    K. Patkowski, A. E. DePrince III, U. Bozkaya, R. A. King,
    F. A. Evangelista, J. M. Turney, T. D. Crawford, C. D. Sherrill,
    J. Chem. Phys. 152(18) 184108 (2020). https://doi.org/10.1063/5.0006002

                            Additional Code Authors
    E. T. Seidl, C. L. Janssen, E. F. Valeev, M. L. Leininger,
    J. F. Gonthier, R. M. Richard, H. R. McAlexander, M. Saitow, X. Wang,
    P. Verma, M. H. Lechner, A. Jiang, S. Behnle, A. G. Heide,
    M. F. Herbst, and D. L. Poole

             Previous Authors, Complete List of Code Contributors,
                       and Citations for Specific Modules
    https://github.com/psi4/psi4/blob/master/codemeta.json
    https://github.com/psi4/psi4/graphs/contributors
    http://psicode.org/psi4manual/master/introduction.html#citing-psifour

    -----------------------------------------------------------------------


    Psi4 started on: Thursday, 19 September 2024 02:16PM

    Process ID: 605866
    Host:       cmpsrv002
    PSIDATADIR: /home/vance/anaconda3/envs/p4env/share/psi4
    Memory:     500.0 MiB
    Threads:    8
    
  ==> Input File <==

--------------------------------------------------------------------------
#charge=0 charge_a=0 charge_b=0 selection_a=1-2 selection_b=3-13 scaling=1.1 benchmark_Eint=-11.550 benchmark_unit=kcal/mol group=XH-N
set_num_threads(4)
memory 8 GB
basis this_basis {
    assign    def2-qzvp
}

molecule {
     0 1
    --
     0 1
     H        0.00000        0.00000        1.62588
    Cl        0.00000        0.00000        2.99334
    --
     0 1
     H        0.00000       -2.14771       -2.70935
     H        0.00000       -2.05142       -0.21582
     C        0.00000        0.00000       -2.90315
     C        0.00000       -1.19640       -2.19904
     C        0.00000       -1.14931       -0.81310
     N        0.00000        0.00000       -0.14011
     C        0.00000        1.14931       -0.81310
     C        0.00000        1.19640       -2.19904
     H        0.00000        2.05142       -0.21582
     H        0.00000        2.14771       -2.70935
     H        0.00000        0.00000       -3.98373
}

set {
    sapt_dft_functional     PBE0
    scf_type                DF
    freeze_core             true
    sapt_dft_grac_shift_a    0.116251
    sapt_dft_grac_shift_b    0.074627
    sapt_dft_do_hybrid      true
    do_ind_exch_sinf        true
    do_disp_exch_sinf       true
}

nrg = energy('sapt(DFT)')
--------------------------------------------------------------------------
  Threads set to 4 by Python driver.

  Memory set to   7.451 GiB by Python driver.

Scratch directory: /scratch2/vance/psi4/

*** tstart() called on cmpsrv002
*** at Thu Sep 19 14:16:09 2024

  SAPT does not make use of molecular symmetry, further calculations in C1 point group.

         ---------------------------------------------------------
                            SAPT(DFT) Procedure                    

                           by Daniel G. A. Smith                   
         ---------------------------------------------------------

Warning! The default value of SAPT_DFT_EXCH_DISP_SCALE_SCHEME has changed from DISP to FIXED. Please be careful comparing results with earlier versions. 

  ==> Algorithm <==

   SAPT DFT Functional             PBE0
   Monomer A GRAC Shift        0.116251
   Monomer B GRAC Shift        0.074627
   Delta HF                        True
   JK Algorithm                      DF

   Required computations:
     HF  (Dimer)
     HF  (Monomer A)
     HF  (Monomer B)
     DFT (Monomer A)
     DFT (Monomer B)

   => Libint2 <=

    Primary   basis highest AM E, G, H:  6, 6, 3
    Auxiliary basis highest AM E, G, H:  7, 7, 4
    Onebody   basis highest AM E, G, H:  -, -, -
    Solid Harmonics ordering:            Gaussian

*** tstart() called on cmpsrv002
*** at Thu Sep 19 14:16:09 2024

   => Loading Basis Set <=

    Name: THIS_BASIS
    Role: ORBITAL
    Keyword: BASIS
    atoms 1, 3-4, 11-13 entry H          line    15 file /home/vance/anaconda3/envs/p4env/share/psi4/basis/def2-qzvp.gbs 
    atoms 2             entry CL         line   809 file /home/vance/anaconda3/envs/p4env/share/psi4/basis/def2-qzvp.gbs 
    atoms 5-7, 9-10     entry C          line   194 file /home/vance/anaconda3/envs/p4env/share/psi4/basis/def2-qzvp.gbs 
    atoms 8             entry N          line   242 file /home/vance/anaconda3/envs/p4env/share/psi4/basis/def2-qzvp.gbs 


         ---------------------------------------------------------
                         SAPT(DFT): delta HF Dimer                 
         ---------------------------------------------------------
                                   SCF
               by Justin Turney, Rob Parrish, Andy Simmonett
                          and Daniel G. A. Smith
                              RHF Reference
                        4 Threads,   7629 MiB Core
         ---------------------------------------------------------

  ==> Geometry <==

    Molecular point group: c1
    Full point group: C2v

    Geometry (in Angstrom), charge = 0, multiplicity = 1:

       Center              X                  Y                   Z               Mass       
    ------------   -----------------  -----------------  -----------------  -----------------
         H            0.000000000000     0.000000000000     1.736208712183     1.007825032230
         CL           0.000000000000     0.000000000000     3.103668712183    34.968852682000
         H            0.000000000000    -2.147710000000    -2.599021287817     1.007825032230
         H            0.000000000000    -2.051420000000    -0.105491287817     1.007825032230
         C            0.000000000000     0.000000000000    -2.792821287817    12.000000000000
         C            0.000000000000    -1.196400000000    -2.088711287817    12.000000000000
         C            0.000000000000    -1.149310000000    -0.702771287817    12.000000000000
         N            0.000000000000     0.000000000000    -0.029781287817    14.003074004430
         C           -0.000000000000     1.149310000000    -0.702771287817    12.000000000000
         C           -0.000000000000     1.196400000000    -2.088711287817    12.000000000000
         H           -0.000000000000     2.051420000000    -0.105491287817     1.007825032230
         H           -0.000000000000     2.147710000000    -2.599021287817     1.007825032230
         H            0.000000000000     0.000000000000    -3.873401287817     1.007825032230

  Running in c1 symmetry.

  Rotational constants: A =      0.20108  B =      0.02912  C =      0.02544 [cm^-1]
  Rotational constants: A =   6028.26605  B =    873.13116  C =    762.66686 [MHz]
  Nuclear repulsion =  306.622673760718328

  Charge       = 0
  Multiplicity = 1
  Electrons    = 60
  Nalpha       = 30
  Nbeta        = 30

  ==> Algorithm <==

  SCF Algorithm Type is DF.
  DIIS enabled.
  MOM disabled.
  Fractional occupation disabled.
  Guess Type is SAD.
  Energy threshold   = 1.00e-08
  Density threshold  = 1.00e-08
  Integral threshold = 1.00e-12

  ==> Primary Basis <==

  Basis Set: THIS_BASIS
    Blend: DEF2-QZVP
    Number of shells: 184
    Number of basis functions: 592
    Number of Cartesian functions: 728
    Spherical Harmonics?: true
    Max angular momentum: 4

   => Loading Basis Set <=

    Name: (THIS_BASIS AUX)
    Role: JKFIT
    Keyword: DF_BASIS_SCF
    atoms 1, 3-4, 11-13 entry H          line    18 file /home/vance/anaconda3/envs/p4env/share/psi4/basis/def2-universal-jkfit.gbs 
    atoms 2             entry CL         line   986 file /home/vance/anaconda3/envs/p4env/share/psi4/basis/def2-universal-jkfit.gbs 
    atoms 5-7, 9-10     entry C          line   198 file /home/vance/anaconda3/envs/p4env/share/psi4/basis/def2-universal-jkfit.gbs 
    atoms 8             entry N          line   258 file /home/vance/anaconda3/envs/p4env/share/psi4/basis/def2-universal-jkfit.gbs 

  ==> Integral Setup <==

  ==> DiskDFJK: Density-Fitted J/K Matrices <==

    J tasked:                  Yes
    K tasked:                  Yes
    wK tasked:                  No
    OpenMP threads:              4
    Integrals threads:           4
    Memory [MiB]:             5722
    Algorithm:                Core
    Integral Cache:           SAVE
    Schwarz Cutoff:          1E-12
    Fitting Condition:       1E-10

   => Auxiliary Basis Set <=

  Basis Set: (THIS_BASIS AUX)
    Blend: DEF2-UNIVERSAL-JKFIT
    Number of shells: 224
    Number of basis functions: 688
    Number of Cartesian functions: 813
    Spherical Harmonics?: true
    Max angular momentum: 4

  Minimum eigenvalue in the overlap matrix is 1.9508614603E-05.
  Reciprocal condition number of the overlap matrix is 1.7652225502E-06.
    Using symmetric orthogonalization.

  ==> Pre-Iterations <==

  SCF Guess: Superposition of Atomic Densities via on-the-fly atomic UHF (no occupation information).

   -------------------------
    Irrep   Nso     Nmo    
   -------------------------
     A        592     592 
   -------------------------
    Total     592     592
   -------------------------

  ==> Iterations <==

                           Total Energy        Delta E     RMS |[F,P]|

   @DF-RHF iter SAD:  -706.26985183942895   -7.06270e+02   0.00000e+00 
   @DF-RHF iter   1:  -706.76668815859159   -4.96836e-01   8.65642e-04 ADIIS/DIIS
   @DF-RHF iter   2:  -706.89023635251385   -1.23548e-01   3.66727e-04 ADIIS/DIIS
   @DF-RHF iter   3:  -706.91152934185379   -2.12930e-02   7.65334e-05 DIIS
   @DF-RHF iter   4:  -706.91312392979262   -1.59459e-03   1.84753e-05 DIIS
   @DF-RHF iter   5:  -706.91320954068510   -8.56109e-05   5.91862e-06 DIIS
   @DF-RHF iter   6:  -706.91322145226218   -1.19116e-05   2.23525e-06 DIIS
   @DF-RHF iter   7:  -706.91322352358486   -2.07132e-06   9.37001e-07 DIIS
   @DF-RHF iter   8:  -706.91322381919235   -2.95607e-07   2.84064e-07 DIIS
   @DF-RHF iter   9:  -706.91322385063143   -3.14391e-08   1.06074e-07 DIIS
   @DF-RHF iter  10:  -706.91322385388946   -3.25804e-09   2.45939e-08 DIIS
   @DF-RHF iter  11:  -706.91322385434648   -4.57021e-10   1.21637e-08 DIIS
   @DF-RHF iter  12:  -706.91322385446313   -1.16643e-10   5.27079e-09 DIIS
  Energy and wave function converged.


  ==> Post-Iterations <==

    Orbital Energies [Eh]
    ---------------------

    Doubly Occupied:                                                      

       1A   -104.792217     2A    -15.593947     3A    -11.297656  
       4A    -11.297636     5A    -11.279088     6A    -11.260079  
       7A    -11.260027     8A    -10.517464     9A     -7.984476  
      10A     -7.983307    11A     -7.983293    12A     -1.289995  
      13A     -1.112741    14A     -1.060093    15A     -1.052778  
      16A     -0.883275    17A     -0.881504    18A     -0.749188  
      19A     -0.687440    20A     -0.675094    21A     -0.623965  
      22A     -0.619221    23A     -0.570877    24A     -0.557456  
      25A     -0.544824    26A     -0.434506    27A     -0.427503  
      28A     -0.427188    29A     -0.409017    30A     -0.370557  

    Virtual:                                                              

      31A      0.075674    32A      0.094511    33A      0.094920  
      34A      0.111798    35A      0.120641    36A      0.148498  
      37A      0.152135    38A      0.187419    39A      0.189360  
      40A      0.192333    41A      0.213374    42A      0.223164  
      43A      0.229000    44A      0.238453    45A      0.244746  
      46A      0.245945    47A      0.263845    48A      0.277252  
      49A      0.281726    50A      0.316753    51A      0.324375  
      52A      0.341363    53A      0.351352    54A      0.366358  
      55A      0.373991    56A      0.376642    57A      0.380674  
      58A      0.395502    59A      0.409005    60A      0.414933  
      61A      0.443121    62A      0.449384    63A      0.463726  
      64A      0.464905    65A      0.476231    66A      0.478999  
      67A      0.513058    68A      0.515312    69A      0.516238  
      70A      0.531746    71A      0.536863    72A      0.542635  
      73A      0.549841    74A      0.560036    75A      0.568144  
      76A      0.589776    77A      0.618603    78A      0.619500  
      79A      0.633473    80A      0.657312    81A      0.670003  
      82A      0.675188    83A      0.690881    84A      0.728444  
      85A      0.751320    86A      0.752350    87A      0.780867  
      88A      0.787764    89A      0.802724    90A      0.803612  
      91A      0.827282    92A      0.839948    93A      0.860863  
      94A      0.861192    95A      0.876714    96A      0.898702  
      97A      0.904652    98A      0.906531    99A      0.909079  
     100A      0.927024   101A      0.934187   102A      0.937679  
     103A      0.941823   104A      0.942067   105A      0.981477  
     106A      0.995140   107A      1.017980   108A      1.025097  
     109A      1.037035   110A      1.045577   111A      1.074620  
     112A      1.077425   113A      1.080824   114A      1.094738  
     115A      1.100866   116A      1.113859   117A      1.116291  
     118A      1.158673   119A      1.169467   120A      1.186300  
     121A      1.187786   122A      1.202333   123A      1.221829  
     124A      1.228905   125A      1.245643   126A      1.247779  
     127A      1.277273   128A      1.279614   129A      1.307726  
     130A      1.317169   131A      1.326569   132A      1.338602  
     133A      1.366047   134A      1.368342   135A      1.370769  
     136A      1.384331   137A      1.410386   138A      1.416985  
     139A      1.424529   140A      1.429089   141A      1.464060  
     142A      1.466263   143A      1.474519   144A      1.474842  
     145A      1.489324   146A      1.506215   147A      1.555688  
     148A      1.558429   149A      1.566057   150A      1.592526  
     151A      1.603022   152A      1.614143   153A      1.617484  
     154A      1.651471   155A      1.663750   156A      1.677818  
     157A      1.698225   158A      1.743701   159A      1.763472  
     160A      1.773489   161A      1.784621   162A      1.816826  
     163A      1.833985   164A      1.865131   165A      1.894685  
     166A      1.908440   167A      1.912340   168A      1.947891  
     169A      1.964185   170A      1.974463   171A      1.981366  
     172A      1.999648   173A      2.010420   174A      2.021659  
     175A      2.045192   176A      2.048821   177A      2.070016  
     178A      2.091648   179A      2.104647   180A      2.125022  
     181A      2.166545   182A      2.171649   183A      2.182295  
     184A      2.192805   185A      2.199491   186A      2.201514  
     187A      2.202817   188A      2.220475   189A      2.220885  
     190A      2.264761   191A      2.273225   192A      2.281906  
     193A      2.288183   194A      2.291358   195A      2.324012  
     196A      2.326226   197A      2.326724   198A      2.378083  
     199A      2.380058   200A      2.395709   201A      2.411869  
     202A      2.412867   203A      2.413739   204A      2.444569  
     205A      2.451906   206A      2.473689   207A      2.475754  
     208A      2.491291   209A      2.505174   210A      2.524866  
     211A      2.541594   212A      2.561995   213A      2.599385  
     214A      2.599945   215A      2.604271   216A      2.613982  
     217A      2.675806   218A      2.675884   219A      2.689898  
     220A      2.693471   221A      2.696303   222A      2.722268  
     223A      2.727455   224A      2.740635   225A      2.760006  
     226A      2.760258   227A      2.783635   228A      2.795348  
     229A      2.807136   230A      2.807628   231A      2.825880  
     232A      2.841168   233A      2.861178   234A      2.863410  
     235A      2.869928   236A      2.884360   237A      2.911754  
     238A      2.934821   239A      2.944043   240A      2.968566  
     241A      2.973026   242A      2.998335   243A      3.001411  
     244A      3.044803   245A      3.050028   246A      3.063892  
     247A      3.083622   248A      3.101051   249A      3.130156  
     250A      3.161657   251A      3.166867   252A      3.199031  
     253A      3.229484   254A      3.290508   255A      3.308152  
     256A      3.308297   257A      3.321413   258A      3.354664  
     259A      3.357769   260A      3.378006   261A      3.419802  
     262A      3.469147   263A      3.509611   264A      3.552094  
     265A      3.556046   266A      3.564771   267A      3.583052  
     268A      3.619314   269A      3.627486   270A      3.629668  
     271A      3.640381   272A      3.660442   273A      3.663194  
     274A      3.668672   275A      3.690937   276A      3.724049  
     277A      3.744770   278A      3.770778   279A      3.794506  
     280A      3.801972   281A      3.804428   282A      3.813963  
     283A      3.828687   284A      3.830659   285A      3.844785  
     286A      3.922062   287A      3.961359   288A      3.978988  
     289A      3.979522   290A      3.982157   291A      3.990719  
     292A      4.007408   293A      4.007466   294A      4.060358  
     295A      4.084566   296A      4.095134   297A      4.115376  
     298A      4.124147   299A      4.133266   300A      4.189485  
     301A      4.195335   302A      4.213993   303A      4.239783  
     304A      4.265313   305A      4.277943   306A      4.283490  
     307A      4.325357   308A      4.341360   309A      4.346955  
     310A      4.361964   311A      4.364809   312A      4.400713  
     313A      4.407112   314A      4.442090   315A      4.444058  
     316A      4.486381   317A      4.489023   318A      4.490827  
     319A      4.524183   320A      4.539465   321A      4.579121  
     322A      4.583131   323A      4.642338   324A      4.701444  
     325A      4.773099   326A      4.827190   327A      4.880976  
     328A      4.938028   329A      4.994935   330A      5.003985  
     331A      5.028079   332A      5.098833   333A      5.122312  
     334A      5.134051   335A      5.151679   336A      5.198485  
     337A      5.219741   338A      5.238230   339A      5.251093  
     340A      5.264417   341A      5.388320   342A      5.393136  
     343A      5.400695   344A      5.404497   345A      5.432687  
     346A      5.468681   347A      5.535578   348A      5.572264  
     349A      5.593825   350A      5.607400   351A      5.632374  
     352A      5.687928   353A      5.688662   354A      5.729916  
     355A      5.758166   356A      5.761456   357A      5.795122  
     358A      5.814485   359A      5.835733   360A      5.848236  
     361A      5.879221   362A      5.886342   363A      5.888079  
     364A      5.988668   365A      5.991224   366A      6.006203  
     367A      6.053330   368A      6.085842   369A      6.086045  
     370A      6.097994   371A      6.130954   372A      6.131436  
     373A      6.145271   374A      6.189839   375A      6.190627  
     376A      6.207445   377A      6.256025   378A      6.267890  
     379A      6.299876   380A      6.318371   381A      6.345291  
     382A      6.350259   383A      6.350372   384A      6.398287  
     385A      6.413656   386A      6.418695   387A      6.421946  
     388A      6.432988   389A      6.443132   390A      6.474813  
     391A      6.492073   392A      6.497724   393A      6.499418  
     394A      6.516788   395A      6.535377   396A      6.536007  
     397A      6.541839   398A      6.564396   399A      6.611032  
     400A      6.629731   401A      6.638851   402A      6.640656  
     403A      6.649514   404A      6.656760   405A      6.667538  
     406A      6.680919   407A      6.693724   408A      6.707950  
     409A      6.752225   410A      6.776538   411A      6.783996  
     412A      6.819071   413A      6.830180   414A      6.849893  
     415A      6.891567   416A      6.900536   417A      6.919332  
     418A      6.919829   419A      6.987466   420A      7.001732  
     421A      7.029785   422A      7.030893   423A      7.049207  
     424A      7.050632   425A      7.063729   426A      7.112629  
     427A      7.114858   428A      7.154953   429A      7.180015  
     430A      7.182423   431A      7.200360   432A      7.236009  
     433A      7.288506   434A      7.336761   435A      7.396668  
     436A      7.399288   437A      7.408306   438A      7.430921  
     439A      7.457828   440A      7.500094   441A      7.520827  
     442A      7.538305   443A      7.558601   444A      7.580378  
     445A      7.602300   446A      7.690338   447A      7.701390  
     448A      7.710078   449A      7.763558   450A      7.793993  
     451A      7.794554   452A      7.820065   453A      7.836173  
     454A      7.871286   455A      7.875596   456A      7.877273  
     457A      7.899328   458A      7.940178   459A      7.950090  
     460A      7.998857   461A      8.011997   462A      8.032209  
     463A      8.080613   464A      8.098781   465A      8.110820  
     466A      8.129728   467A      8.132176   468A      8.172387  
     469A      8.195548   470A      8.210006   471A      8.266596  
     472A      8.286165   473A      8.321551   474A      8.325712  
     475A      8.337366   476A      8.348286   477A      8.355341  
     478A      8.357781   479A      8.378686   480A      8.379335  
     481A      8.434373   482A      8.446155   483A      8.479376  
     484A      8.485666   485A      8.493171   486A      8.498185  
     487A      8.531025   488A      8.533553   489A      8.536925  
     490A      8.628188   491A      8.635630   492A      8.685952  
     493A      8.707906   494A      8.724986   495A      8.728037  
     496A      8.755501   497A      8.759999   498A      8.774512  
     499A      8.774758   500A      8.783668   501A      8.812970  
     502A      8.854803   503A      8.860170   504A      8.893778  
     505A      8.896547   506A      8.916330   507A      8.964142  
     508A      8.998302   509A      9.008210   510A      9.021333  
     511A      9.032876   512A      9.104792   513A      9.129973  
     514A      9.143375   515A      9.148186   516A      9.169477  
     517A      9.201393   518A      9.279302   519A      9.319916  
     520A      9.330359   521A      9.385584   522A      9.480842  
     523A      9.518517   524A      9.567005   525A      9.587080  
     526A      9.652313   527A      9.740847   528A      9.766804  
     529A      9.771237   530A      9.805356   531A      9.860273  
     532A      9.968018   533A      9.972868   534A     10.084261  
     535A     10.129115   536A     10.139269   537A     10.175140  
     538A     10.192407   539A     10.240323   540A     10.269167  
     541A     10.279241   542A     10.331754   543A     10.376582  
     544A     10.457764   545A     10.512566   546A     10.561320  
     547A     10.586885   548A     10.590276   549A     10.682493  
     550A     10.742606   551A     10.746598   552A     10.880481  
     553A     10.970568   554A     10.974894   555A     11.039308  
     556A     11.166297   557A     11.191846   558A     11.283964  
     559A     11.329444   560A     11.335173   561A     11.447201  
     562A     11.478516   563A     11.484048   564A     11.617429  
     565A     12.026953   566A     12.234496   567A     12.389274  
     568A     12.527561   569A     12.550533   570A     12.845541  
     571A     13.150255   572A     13.160133   573A     13.409653  
     574A     13.660751   575A     28.973262   576A     29.479797  
     577A     29.641197   578A     29.991418   579A     30.031043  
     580A     30.194808   581A     38.857553   582A     43.331628  
     583A     43.333902   584A     43.479106   585A    100.426557  
     586A    149.546580   587A    150.036310   588A    150.181639  
     589A    150.527272   590A    150.746980   591A    199.984608  
     592A    530.762443  

    Final Occupation by Irrep:
              A 
    DOCC [    30 ]
    NA   [    30 ]
    NB   [    30 ]

  @DF-RHF Final Energy:  -706.91322385446313

   => Energetics <=

    Nuclear Repulsion Energy =            306.6226737607183281
    One-Electron Energy =               -1577.8189690288061229
    Two-Electron Energy =                 564.2830714136247252
    Total Energy =                       -706.9132238544631264

Computation Completed


Properties will be evaluated at   0.000000,   0.000000,   0.000000 [a0]

Properties computed using the SCF density matrix


 Multipole Moments:

 ------------------------------------------------------------------------------------
     Multipole            Electronic (a.u.)      Nuclear  (a.u.)        Total (a.u.)
 ------------------------------------------------------------------------------------

 L = 1.  Multiply by 2.5417464519 to convert [e a0] to [Debye]
 Dipole X            :         -0.0000000           -0.0000000           -0.0000000
 Dipole Y            :         -0.0000000           -0.0000000           -0.0000000
 Dipole Z            :          7.5931385           -9.9154634           -2.3223249
 Magnitude           :                                                    2.3223249

 ------------------------------------------------------------------------------------

*** tstop() called on cmpsrv002 at Thu Sep 19 14:34:13 2024
Module time:
	user time   =      52.24 seconds =       0.87 minutes
	system time =       5.85 seconds =       0.10 minutes
	total time  =       1084 seconds =      18.07 minutes
Total time:
	user time   =      52.24 seconds =       0.87 minutes
	system time =       5.85 seconds =       0.10 minutes
	total time  =       1084 seconds =      18.07 minutes
   => Libint2 <=

    Primary   basis highest AM E, G, H:  6, 6, 3
    Auxiliary basis highest AM E, G, H:  7, 7, 4
    Onebody   basis highest AM E, G, H:  -, -, -
    Solid Harmonics ordering:            Gaussian

*** tstart() called on cmpsrv002
*** at Thu Sep 19 14:34:13 2024

   => Loading Basis Set <=

    Name: THIS_BASIS
    Role: ORBITAL
    Keyword: BASIS
    atoms 1, 3-4, 11-13 entry H          line    15 file /home/vance/anaconda3/envs/p4env/share/psi4/basis/def2-qzvp.gbs 
    atoms 2             entry CL         line   809 file /home/vance/anaconda3/envs/p4env/share/psi4/basis/def2-qzvp.gbs 
    atoms 5-7, 9-10     entry C          line   194 file /home/vance/anaconda3/envs/p4env/share/psi4/basis/def2-qzvp.gbs 
    atoms 8             entry N          line   242 file /home/vance/anaconda3/envs/p4env/share/psi4/basis/def2-qzvp.gbs 


         ---------------------------------------------------------
                       SAPT(DFT): delta HF Monomer A               
         ---------------------------------------------------------
                                   SCF
               by Justin Turney, Rob Parrish, Andy Simmonett
                          and Daniel G. A. Smith
                              RHF Reference
                        4 Threads,   7629 MiB Core
         ---------------------------------------------------------

  ==> Geometry <==

    Molecular point group: c1
    Full point group: C2v

    Geometry (in Angstrom), charge = 0, multiplicity = 1:

       Center              X                  Y                   Z               Mass       
    ------------   -----------------  -----------------  -----------------  -----------------
         H            0.000000000000     0.000000000000     1.736208712183     1.007825032230
         CL           0.000000000000     0.000000000000     3.103668712183    34.968852682000
      Gh(H)           0.000000000000    -2.147710000000    -2.599021287817     1.007825032230
      Gh(H)           0.000000000000    -2.051420000000    -0.105491287817     1.007825032230
      Gh(C)           0.000000000000     0.000000000000    -2.792821287817    12.000000000000
      Gh(C)           0.000000000000    -1.196400000000    -2.088711287817    12.000000000000
      Gh(C)           0.000000000000    -1.149310000000    -0.702771287817    12.000000000000
      Gh(N)           0.000000000000     0.000000000000    -0.029781287817    14.003074004430
      Gh(C)          -0.000000000000     1.149310000000    -0.702771287817    12.000000000000
      Gh(C)          -0.000000000000     1.196400000000    -2.088711287817    12.000000000000
      Gh(H)          -0.000000000000     2.051420000000    -0.105491287817     1.007825032230
      Gh(H)          -0.000000000000     2.147710000000    -2.599021287817     1.007825032230
      Gh(H)           0.000000000000     0.000000000000    -3.873401287817     1.007825032230

  Running in c1 symmetry.

  Rotational constants: A =      0.20108  B =      0.02912  C =      0.02544 [cm^-1]
  Rotational constants: A =   6028.26605  B =    873.13116  C =    762.66686 [MHz]
  Nuclear repulsion =    6.578629416136487

  Charge       = 0
  Multiplicity = 1
  Electrons    = 18
  Nalpha       = 9
  Nbeta        = 9

  ==> Algorithm <==

  SCF Algorithm Type is DF.
  DIIS enabled.
  MOM disabled.
  Fractional occupation disabled.
  Guess Type is SAD.
  Energy threshold   = 1.00e-08
  Density threshold  = 1.00e-08
  Integral threshold = 1.00e-12

  ==> Primary Basis <==

  Basis Set: THIS_BASIS
    Blend: DEF2-QZVP
    Number of shells: 184
    Number of basis functions: 592
    Number of Cartesian functions: 728
    Spherical Harmonics?: true
    Max angular momentum: 4

   => Loading Basis Set <=

    Name: (THIS_BASIS AUX)
    Role: JKFIT
    Keyword: DF_BASIS_SCF
    atoms 1, 3-4, 11-13 entry H          line    18 file /home/vance/anaconda3/envs/p4env/share/psi4/basis/def2-universal-jkfit.gbs 
    atoms 2             entry CL         line   986 file /home/vance/anaconda3/envs/p4env/share/psi4/basis/def2-universal-jkfit.gbs 
    atoms 5-7, 9-10     entry C          line   198 file /home/vance/anaconda3/envs/p4env/share/psi4/basis/def2-universal-jkfit.gbs 
    atoms 8             entry N          line   258 file /home/vance/anaconda3/envs/p4env/share/psi4/basis/def2-universal-jkfit.gbs 

  ==> Integral Setup <==

  ==> DiskDFJK: Density-Fitted J/K Matrices <==

    J tasked:                  Yes
    K tasked:                  Yes
    wK tasked:                  No
    OpenMP threads:              4
    Integrals threads:           4
    Memory [MiB]:             5722
    Algorithm:                Core
    Integral Cache:           SAVE
    Schwarz Cutoff:          1E-12
    Fitting Condition:       1E-10

   => Auxiliary Basis Set <=

  Basis Set: (THIS_BASIS AUX)
    Blend: DEF2-UNIVERSAL-JKFIT
    Number of shells: 224
    Number of basis functions: 688
    Number of Cartesian functions: 813
    Spherical Harmonics?: true
    Max angular momentum: 4

  Minimum eigenvalue in the overlap matrix is 1.9508614603E-05.
  Reciprocal condition number of the overlap matrix is 1.7652225502E-06.
    Using symmetric orthogonalization.

  ==> Pre-Iterations <==

  SCF Guess: Superposition of Atomic Densities via on-the-fly atomic UHF (no occupation information).

   -------------------------
    Irrep   Nso     Nmo    
   -------------------------
     A        592     592 
   -------------------------
    Total     592     592
   -------------------------

  ==> Iterations <==

                           Total Energy        Delta E     RMS |[F,P]|

   @DF-RHF iter SAD:  -459.85761997659165   -4.59858e+02   0.00000e+00 
   @DF-RHF iter   1:  -460.08217987392203   -2.24560e-01   3.75534e-04 ADIIS/DIIS
   @DF-RHF iter   2:  -460.10309631789886   -2.09164e-02   1.60748e-04 ADIIS/DIIS
   @DF-RHF iter   3:  -460.10615493454389   -3.05862e-03   2.76028e-05 DIIS
   @DF-RHF iter   4:  -460.10651767488389   -3.62740e-04   8.83101e-06 DIIS
   @DF-RHF iter   5:  -460.10656473590319   -4.70610e-05   1.55761e-06 DIIS
   @DF-RHF iter   6:  -460.10656599430240   -1.25840e-06   3.35590e-07 DIIS
   @DF-RHF iter   7:  -460.10656601890707   -2.46047e-08   7.20749e-08 DIIS
   @DF-RHF iter   8:  -460.10656602091706   -2.00998e-09   1.45131e-08 DIIS
   @DF-RHF iter   9:  -460.10656602100073   -8.36735e-11   2.18413e-09 DIIS
  Energy and wave function converged.


  ==> Post-Iterations <==

    Orbital Energies [Eh]
    ---------------------

    Doubly Occupied:                                                      

       1A   -104.853035     2A    -10.576330     3A     -8.043384  
       4A     -8.041808     5A     -8.041806     6A     -1.101145  
       7A     -0.605865     8A     -0.474621     9A     -0.474607  

    Virtual:                                                              

      10A      0.040903    11A      0.080282    12A      0.083401  
      13A      0.125612    14A      0.132541    15A      0.135549  
      16A      0.154306    17A      0.173270    18A      0.188013  
      19A      0.191178    20A      0.206293    21A      0.225840  
      22A      0.229504    23A      0.231185    24A      0.258528  
      25A      0.261692    26A      0.262774    27A      0.269805  
      28A      0.294214    29A      0.315596    30A      0.317438  
      31A      0.333785    32A      0.342399    33A      0.344012  
      34A      0.360949    35A      0.363933    36A      0.390161  
      37A      0.396301    38A      0.404421    39A      0.415739  
      40A      0.423128    41A      0.453110    42A      0.472325  
      43A      0.485617    44A      0.497403    45A      0.497505  
      46A      0.542534    47A      0.542825    48A      0.567681  
      49A      0.573839    50A      0.599142    51A      0.600149  
      52A      0.600714    53A      0.612031    54A      0.614419  
      55A      0.653698    56A      0.666530    57A      0.689151  
      58A      0.699476    59A      0.719782    60A      0.746139  
      61A      0.746972    62A      0.747487    63A      0.762597  
      64A      0.773153    65A      0.783724    66A      0.796294  
      67A      0.817090    68A      0.820547    69A      0.821844  
      70A      0.822080    71A      0.838280    72A      0.865782  
      73A      0.893091    74A      0.903115    75A      0.905996  
      76A      0.913465    77A      0.937549    78A      0.945643  
      79A      0.946447    80A      0.956920    81A      0.988395  
      82A      1.006319    83A      1.029213    84A      1.044631  
      85A      1.057414    86A      1.070637    87A      1.082636  
      88A      1.090395    89A      1.104244    90A      1.137977  
      91A      1.166221    92A      1.168966    93A      1.172045  
      94A      1.172117    95A      1.197428    96A      1.206899  
      97A      1.252529    98A      1.262047    99A      1.300627  
     100A      1.306199   101A      1.306203   102A      1.321344  
     103A      1.325449   104A      1.337159   105A      1.355542  
     106A      1.365337   107A      1.383559   108A      1.399272  
     109A      1.400945   110A      1.401940   111A      1.421169  
     112A      1.425321   113A      1.442437   114A      1.471633  
     115A      1.477055   116A      1.478284   117A      1.478960  
     118A      1.496402   119A      1.509944   120A      1.516842  
     121A      1.533938   122A      1.544781   123A      1.560125  
     124A      1.562519   125A      1.570339   126A      1.579545  
     127A      1.593570   128A      1.608005   129A      1.617670  
     130A      1.617962   131A      1.651580   132A      1.693749  
     133A      1.702140   134A      1.717692   135A      1.745908  
     136A      1.756653   137A      1.787756   138A      1.801099  
     139A      1.810730   140A      1.825500   141A      1.859953  
     142A      1.862898   143A      1.897084   144A      1.900429  
     145A      1.906061   146A      1.923367   147A      1.976700  
     148A      1.977462   149A      2.038977   150A      2.083871  
     151A      2.088501   152A      2.114998   153A      2.115253  
     154A      2.151949   155A      2.187322   156A      2.228847  
     157A      2.270187   158A      2.294391   159A      2.320263  
     160A      2.328091   161A      2.348729   162A      2.366855  
     163A      2.374684   164A      2.376048   165A      2.398909  
     166A      2.406270   167A      2.411631   168A      2.431762  
     169A      2.440162   170A      2.468288   171A      2.480319  
     172A      2.511619   173A      2.518545   174A      2.522096  
     175A      2.526134   176A      2.536177   177A      2.542638  
     178A      2.565036   179A      2.573238   180A      2.575715  
     181A      2.579448   182A      2.583161   183A      2.607751  
     184A      2.613718   185A      2.617870   186A      2.631306  
     187A      2.636441   188A      2.647195   189A      2.652112  
     190A      2.667664   191A      2.688662   192A      2.709348  
     193A      2.744169   194A      2.746778   195A      2.749092  
     196A      2.784479   197A      2.784714   198A      2.789239  
     199A      2.834130   200A      2.849648   201A      2.851737  
     202A      2.853020   203A      2.870379   204A      2.876452  
     205A      2.903566   206A      2.937499   207A      2.937522  
     208A      2.953613   209A      2.960604   210A      2.971464  
     211A      2.998171   212A      3.020736   213A      3.026436  
     214A      3.034192   215A      3.058407   216A      3.059190  
     217A      3.087669   218A      3.092418   219A      3.108514  
     220A      3.118270   221A      3.144782   222A      3.160377  
     223A      3.181077   224A      3.186288   225A      3.198325  
     226A      3.228224   227A      3.233968   228A      3.289086  
     229A      3.293456   230A      3.343395   231A      3.358150  
     232A      3.385659   233A      3.386663   234A      3.421589  
     235A      3.460823   236A      3.464250   237A      3.477773  
     238A      3.499929   239A      3.526181   240A      3.546974  
     241A      3.564620   242A      3.570683   243A      3.578918  
     244A      3.595978   245A      3.616731   246A      3.618078  
     247A      3.636164   248A      3.686187   249A      3.690324  
     250A      3.719350   251A      3.743680   252A      3.783060  
     253A      3.784305   254A      3.803801   255A      3.822241  
     256A      3.830342   257A      3.909972   258A      3.920323  
     259A      3.925376   260A      3.930399   261A      3.931682  
     262A      3.962393   263A      3.962424   264A      4.033086  
     265A      4.060418   266A      4.062628   267A      4.074497  
     268A      4.086104   269A      4.114140   270A      4.177880  
     271A      4.178573   272A      4.185605   273A      4.218799  
     274A      4.251888   275A      4.252236   276A      4.262498  
     277A      4.276947   278A      4.292288   279A      4.314136  
     280A      4.316185   281A      4.342686   282A      4.351591  
     283A      4.359950   284A      4.450117   285A      4.462608  
     286A      4.488994   287A      4.489572   288A      4.504061  
     289A      4.513101   290A      4.563381   291A      4.598229  
     292A      4.640399   293A      4.644990   294A      4.654720  
     295A      4.702813   296A      4.712639   297A      4.790399  
     298A      4.847608   299A      4.899413   300A      4.908336  
     301A      4.974016   302A      4.976402   303A      5.022217  
     304A      5.044949   305A      5.054060   306A      5.079030  
     307A      5.103232   308A      5.195438   309A      5.265648  
     310A      5.344305   311A      5.412148   312A      5.431366  
     313A      5.566574   314A      5.605357   315A      5.690014  
     316A      5.725438   317A      5.746832   318A      5.837041  
     319A      5.848908   320A      5.891397   321A      5.893101  
     322A      5.895797   323A      5.941629   324A      5.965810  
     325A      5.981434   326A      6.016666   327A      6.022408  
     328A      6.033234   329A      6.061935   330A      6.071356  
     331A      6.080954   332A      6.087208   333A      6.094088  
     334A      6.101348   335A      6.121885   336A      6.166037  
     337A      6.182984   338A      6.213165   339A      6.255745  
     340A      6.261227   341A      6.284462   342A      6.329874  
     343A      6.373143   344A      6.419261   345A      6.424404  
     346A      6.441300   347A      6.465650   348A      6.498267  
     349A      6.519590   350A      6.563697   351A      6.574230  
     352A      6.584292   353A      6.585444   354A      6.598766  
     355A      6.612083   356A      6.644129   357A      6.657213  
     358A      6.683028   359A      6.725870   360A      6.748333  
     361A      6.815283   362A      6.840772   363A      6.859183  
     364A      6.863930   365A      6.878475   366A      6.901275  
     367A      6.925089   368A      6.944403   369A      6.966689  
     370A      7.007684   371A      7.018960   372A      7.030591  
     373A      7.038829   374A      7.060108   375A      7.063488  
     376A      7.079305   377A      7.096760   378A      7.135515  
     379A      7.151276   380A      7.171098   381A      7.185369  
     382A      7.209606   383A      7.251255   384A      7.270068  
     385A      7.293266   386A      7.314974   387A      7.379820  
     388A      7.386831   389A      7.431290   390A      7.441150  
     391A      7.450576   392A      7.481602   393A      7.512758  
     394A      7.514760   395A      7.575601   396A      7.629235  
     397A      7.661718   398A      7.663109   399A      7.667952  
     400A      7.668411   401A      7.690896   402A      7.702584  
     403A      7.727512   404A      7.777537   405A      7.783918  
     406A      7.799897   407A      7.804044   408A      7.836169  
     409A      7.866779   410A      7.892427   411A      7.963658  
     412A      7.968612   413A      8.013136   414A      8.013870  
     415A      8.064336   416A      8.070905   417A      8.073538  
     418A      8.185620   419A      8.200106   420A      8.247361  
     421A      8.260066   422A      8.281752   423A      8.295063  
     424A      8.322660   425A      8.335273   426A      8.345505  
     427A      8.349993   428A      8.383942   429A      8.416262  
     430A      8.416891   431A      8.433943   432A      8.444711  
     433A      8.450825   434A      8.482509   435A      8.482752  
     436A      8.529980   437A      8.538532   438A      8.540312  
     439A      8.561392   440A      8.636544   441A      8.638321  
     442A      8.661755   443A      8.665263   444A      8.670871  
     445A      8.698077   446A      8.763449   447A      8.770893  
     448A      8.820824   449A      8.865014   450A      8.892945  
     451A      8.904811   452A      8.922779   453A      8.947808  
     454A      8.954585   455A      8.973427   456A      8.976897  
     457A      8.987196   458A      9.030435   459A      9.030664  
     460A      9.041183   461A      9.061556   462A      9.069517  
     463A      9.076621   464A      9.120267   465A      9.137184  
     466A      9.141930   467A      9.166232   468A      9.171752  
     469A      9.187786   470A      9.192008   471A      9.195526  
     472A      9.236758   473A      9.260192   474A      9.264710  
     475A      9.302566   476A      9.321567   477A      9.330314  
     478A      9.361027   479A      9.386570   480A      9.400498  
     481A      9.452424   482A      9.460146   483A      9.504100  
     484A      9.511707   485A      9.549480   486A      9.565390  
     487A      9.596290   488A      9.599819   489A      9.645265  
     490A      9.652363   491A      9.698529   492A      9.754347  
     493A      9.814793   494A      9.836346   495A      9.931634  
     496A     10.004326   497A     10.026395   498A     10.026494  
     499A     10.055760   500A     10.058024   501A     10.199320  
     502A     10.226298   503A     10.317512   504A     10.353500  
     505A     10.380958   506A     10.437518   507A     10.454295  
     508A     10.457694   509A     10.512361   510A     10.567148  
     511A     10.568004   512A     10.609473   513A     10.627777  
     514A     10.629518   515A     10.701682   516A     10.705149  
     517A     10.758269   518A     10.806704   519A     10.886222  
     520A     10.928278   521A     10.952938   522A     11.007111  
     523A     11.035280   524A     11.128774   525A     11.172402  
     526A     11.187110   527A     11.218986   528A     11.275828  
     529A     11.280534   530A     11.353612   531A     11.354549  
     532A     11.370143   533A     11.397434   534A     11.421310  
     535A     11.425373   536A     11.520788   537A     11.540873  
     538A     11.718201   539A     11.820014   540A     11.823176  
     541A     11.833075   542A     11.855256   543A     12.003999  
     544A     12.018559   545A     12.176474   546A     12.227025  
     547A     12.261863   548A     12.361576   549A     12.450466  
     550A     12.636123   551A     12.648896   552A     12.703360  
     553A     13.208442   554A     13.266460   555A     13.423222  
     556A     13.579945   557A     13.610900   558A     13.994887  
     559A     14.012034   560A     14.062958   561A     14.198024  
     562A     14.631606   563A     14.755169   564A     15.050373  
     565A     15.488338   566A     15.826459   567A     16.107262  
     568A     17.112595   569A     18.579673   570A     19.138477  
     571A     19.225690   572A     19.502016   573A     19.580829  
     574A     24.694981   575A     29.970385   576A     43.272468  
     577A     43.274773   578A     43.418945   579A     51.549443  
     580A     51.965726   581A     52.102628   582A     52.381433  
     583A     52.554060   584A     69.885952   585A    100.367179  
     586A    236.243804   587A    236.749245   588A    236.905575  
     589A    237.250112   590A    237.473182   591A    318.095038  
     592A    530.702007  

    Final Occupation by Irrep:
              A 
    DOCC [     9 ]
    NA   [     9 ]
    NB   [     9 ]

  @DF-RHF Final Energy:  -460.10656602100073

   => Energetics <=

    Nuclear Repulsion Energy =              6.5786294161364873
    One-Electron Energy =                -648.9451928099344968
    Two-Electron Energy =                 182.2599973727973293
    Total Energy =                       -460.1065660210007309

Computation Completed


Properties will be evaluated at   0.000000,   0.000000,   0.000000 [a0]

Properties computed using the SCF density matrix


 Multipole Moments:

 ------------------------------------------------------------------------------------
     Multipole            Electronic (a.u.)      Nuclear  (a.u.)        Total (a.u.)
 ------------------------------------------------------------------------------------

 L = 1.  Multiply by 2.5417464519 to convert [e a0] to [Debye]
 Dipole X            :          0.0000000            0.0000000            0.0000000
 Dipole Y            :          0.0000000            0.0000000            0.0000000
 Dipole Z            :       -103.4991368          102.9873844           -0.5117524
 Magnitude           :                                                    0.5117524

 ------------------------------------------------------------------------------------

*** tstop() called on cmpsrv002 at Thu Sep 19 14:54:17 2024
Module time:
	user time   =      32.74 seconds =       0.55 minutes
	system time =      15.77 seconds =       0.26 minutes
	total time  =       1210 seconds =      20.17 minutes
Total time:
	user time   =      94.62 seconds =       1.58 minutes
	system time =      21.11 seconds =       0.35 minutes
	total time  =       2294 seconds =      38.23 minutes
   => Libint2 <=

    Primary   basis highest AM E, G, H:  6, 6, 3
    Auxiliary basis highest AM E, G, H:  7, 7, 4
    Onebody   basis highest AM E, G, H:  -, -, -
    Solid Harmonics ordering:            Gaussian

*** tstart() called on cmpsrv002
*** at Thu Sep 19 14:54:17 2024

   => Loading Basis Set <=

    Name: THIS_BASIS
    Role: ORBITAL
    Keyword: BASIS
    atoms 1, 3-4, 11-13 entry H          line    15 file /home/vance/anaconda3/envs/p4env/share/psi4/basis/def2-qzvp.gbs 
    atoms 2             entry CL         line   809 file /home/vance/anaconda3/envs/p4env/share/psi4/basis/def2-qzvp.gbs 
    atoms 5-7, 9-10     entry C          line   194 file /home/vance/anaconda3/envs/p4env/share/psi4/basis/def2-qzvp.gbs 
    atoms 8             entry N          line   242 file /home/vance/anaconda3/envs/p4env/share/psi4/basis/def2-qzvp.gbs 


         ---------------------------------------------------------
                       SAPT(DFT): delta HF Monomer B               
         ---------------------------------------------------------
                                   SCF
               by Justin Turney, Rob Parrish, Andy Simmonett
                          and Daniel G. A. Smith
                              RHF Reference
                        4 Threads,   7629 MiB Core
         ---------------------------------------------------------

  ==> Geometry <==

    Molecular point group: c1
    Full point group: C2v

    Geometry (in Angstrom), charge = 0, multiplicity = 1:

       Center              X                  Y                   Z               Mass       
    ------------   -----------------  -----------------  -----------------  -----------------
      Gh(H)           0.000000000000     0.000000000000     1.736208712183     1.007825032230
      Gh(CL)          0.000000000000     0.000000000000     3.103668712183    34.968852682000
         H            0.000000000000    -2.147710000000    -2.599021287817     1.007825032230
         H            0.000000000000    -2.051420000000    -0.105491287817     1.007825032230
         C            0.000000000000     0.000000000000    -2.792821287817    12.000000000000
         C            0.000000000000    -1.196400000000    -2.088711287817    12.000000000000
         C            0.000000000000    -1.149310000000    -0.702771287817    12.000000000000
         N            0.000000000000     0.000000000000    -0.029781287817    14.003074004430
         C           -0.000000000000     1.149310000000    -0.702771287817    12.000000000000
         C           -0.000000000000     1.196400000000    -2.088711287817    12.000000000000
         H           -0.000000000000     2.051420000000    -0.105491287817     1.007825032230
         H           -0.000000000000     2.147710000000    -2.599021287817     1.007825032230
         H            0.000000000000     0.000000000000    -3.873401287817     1.007825032230

  Running in c1 symmetry.

  Rotational constants: A =      0.20108  B =      0.02912  C =      0.02544 [cm^-1]
  Rotational constants: A =   6028.26605  B =    873.13116  C =    762.66686 [MHz]
  Nuclear repulsion =  206.982930093006985

  Charge       = 0
  Multiplicity = 1
  Electrons    = 42
  Nalpha       = 21
  Nbeta        = 21

  ==> Algorithm <==

  SCF Algorithm Type is DF.
  DIIS enabled.
  MOM disabled.
  Fractional occupation disabled.
  Guess Type is SAD.
  Energy threshold   = 1.00e-08
  Density threshold  = 1.00e-08
  Integral threshold = 1.00e-12

  ==> Primary Basis <==

  Basis Set: THIS_BASIS
    Blend: DEF2-QZVP
    Number of shells: 184
    Number of basis functions: 592
    Number of Cartesian functions: 728
    Spherical Harmonics?: true
    Max angular momentum: 4

   => Loading Basis Set <=

    Name: (THIS_BASIS AUX)
    Role: JKFIT
    Keyword: DF_BASIS_SCF
    atoms 1, 3-4, 11-13 entry H          line    18 file /home/vance/anaconda3/envs/p4env/share/psi4/basis/def2-universal-jkfit.gbs 
    atoms 2             entry CL         line   986 file /home/vance/anaconda3/envs/p4env/share/psi4/basis/def2-universal-jkfit.gbs 
    atoms 5-7, 9-10     entry C          line   198 file /home/vance/anaconda3/envs/p4env/share/psi4/basis/def2-universal-jkfit.gbs 
    atoms 8             entry N          line   258 file /home/vance/anaconda3/envs/p4env/share/psi4/basis/def2-universal-jkfit.gbs 

  ==> Integral Setup <==

  ==> DiskDFJK: Density-Fitted J/K Matrices <==

    J tasked:                  Yes
    K tasked:                  Yes
    wK tasked:                  No
    OpenMP threads:              4
    Integrals threads:           4
    Memory [MiB]:             5722
    Algorithm:                Core
    Integral Cache:           SAVE
    Schwarz Cutoff:          1E-12
    Fitting Condition:       1E-10

   => Auxiliary Basis Set <=

  Basis Set: (THIS_BASIS AUX)
    Blend: DEF2-UNIVERSAL-JKFIT
    Number of shells: 224
    Number of basis functions: 688
    Number of Cartesian functions: 813
    Spherical Harmonics?: true
    Max angular momentum: 4

  Minimum eigenvalue in the overlap matrix is 1.9508614603E-05.
  Reciprocal condition number of the overlap matrix is 1.7652225502E-06.
    Using symmetric orthogonalization.

  ==> Pre-Iterations <==

  SCF Guess: Superposition of Atomic Densities via on-the-fly atomic UHF (no occupation information).

   -------------------------
    Irrep   Nso     Nmo    
   -------------------------
     A        592     592 
   -------------------------
    Total     592     592
   -------------------------

  ==> Iterations <==

                           Total Energy        Delta E     RMS |[F,P]|

   @DF-RHF iter SAD:  -246.24944590933279   -2.46249e+02   0.00000e+00 
   @DF-RHF iter   1:  -246.65244302180022   -4.02997e-01   8.31438e-04 ADIIS/DIIS
   @DF-RHF iter   2:  -246.76971420042389   -1.17271e-01   3.85533e-04 ADIIS/DIIS
   @DF-RHF iter   3:  -246.79371282750554   -2.39986e-02   7.67495e-05 DIIS
   @DF-RHF iter   4:  -246.79512882204367   -1.41599e-03   2.43080e-05 DIIS
   @DF-RHF iter   5:  -246.79522883414657   -1.00012e-04   7.13621e-06 DIIS
   @DF-RHF iter   6:  -246.79524003362977   -1.11995e-05   1.71452e-06 DIIS
   @DF-RHF iter   7:  -246.79524093183326   -8.98203e-07   6.44153e-07 DIIS
   @DF-RHF iter   8:  -246.79524106945055   -1.37617e-07   2.89197e-07 DIIS
   @DF-RHF iter   9:  -246.79524112109533   -5.16448e-08   9.33990e-08 DIIS
   @DF-RHF iter  10:  -246.79524112932478   -8.22945e-09   3.16369e-08 DIIS
   @DF-RHF iter  11:  -246.79524113041143   -1.08665e-09   1.81221e-08 DIIS
   @DF-RHF iter  12:  -246.79524113063499   -2.23565e-10   4.15550e-09 DIIS
  Energy and wave function converged.


  ==> Post-Iterations <==

    Orbital Energies [Eh]
    ---------------------

    Doubly Occupied:                                                      

       1A    -15.560445     2A    -11.272209     3A    -11.272191  
       4A    -11.257397     5A    -11.239963     6A    -11.239907  
       7A     -1.259507     8A     -1.088824     9A     -1.037036  
      10A     -0.858511    11A     -0.858395    12A     -0.723768  
      13A     -0.662702    14A     -0.654404    15A     -0.602455  
      16A     -0.575811    17A     -0.543683    18A     -0.523243  
      19A     -0.413599    20A     -0.383636    21A     -0.349737  

    Virtual:                                                              

      22A      0.096633    23A      0.099401    24A      0.111101  
      25A      0.114055    26A      0.121144    27A      0.140698  
      28A      0.150884    29A      0.173431    30A      0.190198  
      31A      0.204945    32A      0.207626    33A      0.216851  
      34A      0.219800    35A      0.242053    36A      0.246017  
      37A      0.257488    38A      0.257825    39A      0.267456  
      40A      0.297958    41A      0.299989    42A      0.304406  
      43A      0.331364    44A      0.365401    45A      0.377291  
      46A      0.379384    47A      0.393992    48A      0.410869  
      49A      0.410948    50A      0.425479    51A      0.445714  
      52A      0.454434    53A      0.477805    54A      0.478447  
      55A      0.493122    56A      0.500499    57A      0.503655  
      58A      0.510864    59A      0.535493    60A      0.537824  
      61A      0.554989    62A      0.560568    63A      0.569361  
      64A      0.619505    65A      0.631157    66A      0.635603  
      67A      0.651772    68A      0.677534    69A      0.686751  
      70A      0.695025    71A      0.706145    72A      0.728130  
      73A      0.746150    74A      0.750791    75A      0.766931  
      76A      0.775843    77A      0.784220    78A      0.791371  
      79A      0.804533    80A      0.809185    81A      0.813714  
      82A      0.839190    83A      0.847243    84A      0.863115  
      85A      0.876447    86A      0.881301    87A      0.900061  
      88A      0.914926    89A      0.923318    90A      0.925095  
      91A      0.930235    92A      0.944855    93A      0.951598  
      94A      0.953944    95A      0.962293    96A      0.972085  
      97A      1.005556    98A      1.013822    99A      1.014539  
     100A      1.027026   101A      1.043615   102A      1.063648  
     103A      1.064196   104A      1.086390   105A      1.090328  
     106A      1.103924   107A      1.114177   108A      1.115432  
     109A      1.131662   110A      1.149357   111A      1.152519  
     112A      1.172355   113A      1.180981   114A      1.206700  
     115A      1.227023   116A      1.228317   117A      1.232879  
     118A      1.259059   119A      1.264258   120A      1.266641  
     121A      1.297024   122A      1.326842   123A      1.358473  
     124A      1.358971   125A      1.362562   126A      1.384576  
     127A      1.403251   128A      1.424785   129A      1.434055  
     130A      1.451069   131A      1.467093   132A      1.490539  
     133A      1.519460   134A      1.539000   135A      1.611200  
     136A      1.612919   137A      1.675294   138A      1.676009  
     139A      1.682385   140A      1.752678   141A      1.765180  
     142A      1.776264   143A      1.783559   144A      1.795501  
     145A      1.806677   146A      1.813971   147A      1.817985  
     148A      1.840428   149A      1.847519   150A      1.863020  
     151A      1.891622   152A      1.930102   153A      1.938279  
     154A      1.941118   155A      1.985418   156A      2.002243  
     157A      2.010646   158A      2.017392   159A      2.029079  
     160A      2.041440   161A      2.049461   162A      2.071189  
     163A      2.087953   164A      2.092606   165A      2.096029  
     166A      2.115089   167A      2.118280   168A      2.170474  
     169A      2.178957   170A      2.191559   171A      2.208986  
     172A      2.212772   173A      2.215729   174A      2.215998  
     175A      2.222570   176A      2.226144   177A      2.232986  
     178A      2.247097   179A      2.291040   180A      2.311124  
     181A      2.317885   182A      2.320513   183A      2.322992  
     184A      2.338334   185A      2.351435   186A      2.364718  
     187A      2.387860   188A      2.404194   189A      2.419024  
     190A      2.423169   191A      2.430738   192A      2.439075  
     193A      2.441206   194A      2.441344   195A      2.444998  
     196A      2.458816   197A      2.495213   198A      2.501468  
     199A      2.522504   200A      2.525773   201A      2.528724  
     202A      2.539081   203A      2.549560   204A      2.593085  
     205A      2.594055   206A      2.601511   207A      2.637272  
     208A      2.637424   209A      2.667234   210A      2.679933  
     211A      2.691551   212A      2.703899   213A      2.708571  
     214A      2.720884   215A      2.759002   216A      2.766263  
     217A      2.778180   218A      2.779776   219A      2.784332  
     220A      2.804998   221A      2.828671   222A      2.837595  
     223A      2.839388   224A      2.845306   225A      2.852831  
     226A      2.883170   227A      2.894277   228A      2.912321  
     229A      2.913154   230A      2.928309   231A      2.929976  
     232A      2.963358   233A      2.986479   234A      3.026741  
     235A      3.032689   236A      3.054192   237A      3.066856  
     238A      3.075231   239A      3.075926   240A      3.114050  
     241A      3.119346   242A      3.145360   243A      3.187320  
     244A      3.196955   245A      3.243365   246A      3.272457  
     247A      3.274021   248A      3.331423   249A      3.348092  
     250A      3.365633   251A      3.388754   252A      3.400164  
     253A      3.411124   254A      3.454016   255A      3.487225  
     256A      3.492143   257A      3.493043   258A      3.601941  
     259A      3.647171   260A      3.649378   261A      3.650077  
     262A      3.668553   263A      3.670866   264A      3.681554  
     265A      3.696909   266A      3.732138   267A      3.770142  
     268A      3.803778   269A      3.810421   270A      3.825782  
     271A      3.839095   272A      3.857706   273A      3.872271  
     274A      3.930094   275A      3.951896   276A      3.956482  
     277A      3.986851   278A      4.017313   279A      4.037779  
     280A      4.070411   281A      4.095484   282A      4.141144  
     283A      4.186241   284A      4.215765   285A      4.218347  
     286A      4.244054   287A      4.263374   288A      4.312680  
     289A      4.313191   290A      4.315248   291A      4.376884  
     292A      4.479784   293A      4.481945   294A      4.522909  
     295A      4.529290   296A      4.551836   297A      4.553216  
     298A      4.565663   299A      4.566992   300A      4.570023  
     301A      4.570057   302A      4.659353   303A      4.713626  
     304A      4.722152   305A      4.784435   306A      4.816317  
     307A      4.848964   308A      4.951340   309A      4.987528  
     310A      5.065408   311A      5.085043   312A      5.099765  
     313A      5.175123   314A      5.190004   315A      5.242846  
     316A      5.272819   317A      5.280170   318A      5.358009  
     319A      5.358077   320A      5.397239   321A      5.413034  
     322A      5.420987   323A      5.426424   324A      5.430851  
     325A      5.461363   326A      5.524784   327A      5.533729  
     328A      5.558062   329A      5.577133   330A      5.595379  
     331A      5.607001   332A      5.617786   333A      5.654922  
     334A      5.715026   335A      5.715270   336A      5.758565  
     337A      5.784944   338A      5.785166   339A      5.809244  
     340A      5.814788   341A      5.835389   342A      5.839385  
     343A      5.840643   344A      5.853258   345A      5.856641  
     346A      5.861031   347A      5.869949   348A      5.886567  
     349A      5.900793   350A      5.911621   351A      5.912622  
     352A      5.947887   353A      6.015090   354A      6.019904  
     355A      6.055234   356A      6.057707   357A      6.112771  
     358A      6.113745   359A      6.120674   360A      6.150691  
     361A      6.209506   362A      6.210686   363A      6.229791  
     364A      6.265779   365A      6.281887   366A      6.313334  
     367A      6.321894   368A      6.338028   369A      6.354793  
     370A      6.363699   371A      6.371212   372A      6.415985  
     373A      6.417916   374A      6.420115   375A      6.428855  
     376A      6.436353   377A      6.441595   378A      6.448255  
     379A      6.451744   380A      6.454434   381A      6.462242  
     382A      6.497949   383A      6.518053   384A      6.520581  
     385A      6.536062   386A      6.538463   387A      6.555649  
     388A      6.556583   389A      6.562955   390A      6.585120  
     391A      6.633653   392A      6.644368   393A      6.659071  
     394A      6.660901   395A      6.671735   396A      6.676656  
     397A      6.680252   398A      6.680565   399A      6.683688  
     400A      6.731481   401A      6.745016   402A      6.765615  
     403A      6.806275   404A      6.809253   405A      6.845748  
     406A      6.849442   407A      6.856673   408A      6.897470  
     409A      6.915889   410A      6.922060   411A      6.941536  
     412A      6.953024   413A      7.018433   414A      7.033233  
     415A      7.053832   416A      7.072565   417A      7.084546  
     418A      7.089096   419A      7.098043   420A      7.109599  
     421A      7.131363   422A      7.150640   423A      7.185661  
     424A      7.201999   425A      7.226350   426A      7.236061  
     427A      7.263448   428A      7.305882   429A      7.322373  
     430A      7.420306   431A      7.422895   432A      7.440878  
     433A      7.479537   434A      7.524254   435A      7.526164  
     436A      7.542266   437A      7.581754   438A      7.623236  
     439A      7.665139   440A      7.700816   441A      7.714951  
     442A      7.785906   443A      7.806678   444A      7.841367  
     445A      7.856368   446A      7.880183   447A      7.890678  
     448A      7.897317   449A      7.909693   450A      7.956659  
     451A      7.962163   452A      7.963404   453A      8.023918  
     454A      8.042601   455A      8.053224   456A      8.096643  
     457A      8.104823   458A      8.124220   459A      8.136642  
     460A      8.148887   461A      8.180520   462A      8.188308  
     463A      8.234298   464A      8.281183   465A      8.290835  
     466A      8.298766   467A      8.352788   468A      8.355014  
     469A      8.364208   470A      8.388998   471A      8.389876  
     472A      8.402530   473A      8.404200   474A      8.483106  
     475A      8.502303   476A      8.513687   477A      8.516131  
     478A      8.524373   479A      8.542450   480A      8.555664  
     481A      8.632642   482A      8.656576   483A      8.705912  
     484A      8.709424   485A      8.726865   486A      8.733166  
     487A      8.752919   488A      8.776399   489A      8.791549  
     490A      8.793588   491A      8.806752   492A      8.843721  
     493A      8.844348   494A      8.880118   495A      8.914664  
     496A      8.916224   497A      8.916588   498A      8.937562  
     499A      8.971078   500A      9.000670   501A      9.030880  
     502A      9.042853   503A      9.098626   504A      9.117146  
     505A      9.144609   506A      9.168314   507A      9.212593  
     508A      9.216171   509A      9.256501   510A      9.311418  
     511A      9.322980   512A      9.394223   513A      9.431159  
     514A      9.437324   515A      9.528947   516A      9.545308  
     517A      9.585077   518A      9.600369   519A      9.730926  
     520A      9.741188   521A      9.745282   522A      9.828404  
     523A      9.844698   524A      9.923530   525A      9.938605  
     526A     10.008824   527A     10.023640   528A     10.148712  
     529A     10.160249   530A     10.162053   531A     10.195700  
     532A     10.215097   533A     10.273808   534A     10.291742  
     535A     10.310309   536A     10.355288   537A     10.358702  
     538A     10.478556   539A     10.532470   540A     10.568155  
     541A     10.592739   542A     10.609308   543A     10.687569  
     544A     10.707210   545A     10.765318   546A     10.868237  
     547A     10.913659   548A     11.014784   549A     11.055241  
     550A     11.198698   551A     11.211021   552A     11.306470  
     553A     11.504371   554A     11.647817   555A     12.153462  
     556A     12.259274   557A     12.457991   558A     12.553462  
     559A     12.582367   560A     12.875192   561A     13.172656  
     562A     13.182587   563A     13.431334   564A     13.680141  
     565A     15.536654   566A     21.721779   567A     21.741178  
     568A     21.743769   569A     21.747871   570A     21.861095  
     571A     21.887663   572A     21.986682   573A     22.538052  
     574A     28.995612   575A     29.502693   576A     29.670164  
     577A     30.014171   578A     30.214987   579A     35.840975  
     580A     38.891887   581A     85.681245   582A    118.200569  
     583A    118.201029   584A    118.239743   585A    149.568858  
     586A    150.059223   587A    150.205129   588A    150.549917  
     589A    150.768316   590A    200.018625   591A    234.173707  
     592A   1052.106943  

    Final Occupation by Irrep:
              A 
    DOCC [    21 ]
    NA   [    21 ]
    NB   [    21 ]

  @DF-RHF Final Energy:  -246.79524113063499

   => Energetics <=

    Nuclear Repulsion Energy =            206.9829300930069849
    One-Electron Energy =                -742.8014960020487933
    Two-Electron Energy =                 289.0233247784067885
    Total Energy =                       -246.7952411306350200

Computation Completed


Properties will be evaluated at   0.000000,   0.000000,   0.000000 [a0]

Properties computed using the SCF density matrix


 Multipole Moments:

 ------------------------------------------------------------------------------------
     Multipole            Electronic (a.u.)      Nuclear  (a.u.)        Total (a.u.)
 ------------------------------------------------------------------------------------

 L = 1.  Multiply by 2.5417464519 to convert [e a0] to [Debye]
 Dipole X            :         -0.0000000           -0.0000000           -0.0000000
 Dipole Y            :         -0.0000000           -0.0000000           -0.0000000
 Dipole Z            :        112.0156471         -112.9028478           -0.8872007
 Magnitude           :                                                    0.8872007

 ------------------------------------------------------------------------------------

*** tstop() called on cmpsrv002 at Thu Sep 19 15:09:50 2024
Module time:
	user time   =      68.11 seconds =       1.14 minutes
	system time =       4.38 seconds =       0.07 minutes
	total time  =        933 seconds =      15.55 minutes
Total time:
	user time   =     162.74 seconds =       2.71 minutes
	system time =      25.49 seconds =       0.42 minutes
	total time  =       3227 seconds =      53.78 minutes

         ---------------------------------------------------------
                        SAPT(DFT): delta HF Segment                

                   by Daniel G. A. Smith and Rob Parrish           
         ---------------------------------------------------------


  ==> Preparing SAPT Data Cache <== 

  ==> DiskDFJK: Density-Fitted J/K Matrices <==

    J tasked:                  Yes
    K tasked:                  Yes
    wK tasked:                  No
    OpenMP threads:              4
    Integrals threads:           4
    Memory [MiB]:             5722
    Algorithm:                Core
    Integral Cache:           SAVE
    Schwarz Cutoff:          1E-12
    Fitting Condition:       1E-10

   => Auxiliary Basis Set <=

  Basis Set: (THIS_BASIS AUX)
    Blend: DEF2-UNIVERSAL-JKFIT
    Number of shells: 224
    Number of basis functions: 688
    Number of Cartesian functions: 813
    Spherical Harmonics?: true
    Max angular momentum: 4


  ==> E10 Electostatics <== 

    Elst10,r                        -29.65182254 [mEh]

  ==> E10 Exchange <== 

    Exch10(S^2)                      35.68383763 [mEh]
    Exch10                           36.67142404 [mEh]

  ==> E20 Induction <== 

   => Uncoupled Induction <= 

    Ind20,u (A<-B)                   -5.20521150 [mEh]
    Ind20,u (A->B)                  -10.34232918 [mEh]
    Ind20,u                         -15.54754067 [mEh]
    Exch-Ind20,u (A<-B)               3.40499067 [mEh]
    Exch-Ind20,u (A->B)               4.68359820 [mEh]
    Exch-Ind20,u                      8.08858888 [mEh]
    Exch-Ind20,u (A<-B) (S^inf)       3.61374360 [mEh]
    Exch-Ind20,u (A->B) (S^inf)       5.05122548 [mEh]
    Exch-Ind20,u (S^inf)              8.66496908 [mEh]

   => Coupled Induction <= 

   ---------------------------------------------------
              SAPT Coupled Induction Solver           
   ---------------------------------------------------
    Maxiter             =          20
    Convergence         =   1.000E-06
   ---------------------------------------------------
     Iter       (A<-B)           (B->A)      Time [s]
   ---------------------------------------------------
    Guess    1.277193e-01     1.948399e-01          3
        1    4.726827e-02     1.062855e-01          9
        2    5.741981e-03     2.518193e-02         16
        3    2.214728e-03     1.165878e-02         21
        4    6.018339e-04     5.049906e-03         27
        5    9.368097e-05     2.230093e-03         32
        6    1.730040e-05     6.218980e-04         37
        7    3.355641e-06     2.243850e-04         42
        8    4.665771e-07*    5.015054e-05         47
        9    4.665771e-07*    1.164292e-05         50
       10    4.665771e-07*    3.229618e-06         53
       11    4.665771e-07*    1.016274e-06         58
       12    4.665771e-07*    2.245771e-07*        62
   ---------------------------------------------------

    Ind20,r (A<-B)                   -5.92530664 [mEh]
    Ind20,r (A->B)                  -13.38098633 [mEh]
    Ind20,r                         -19.30629297 [mEh]
    Exch-Ind20,r (A<-B)               4.02085026 [mEh]
    Exch-Ind20,r (A->B)               6.71569434 [mEh]
    Exch-Ind20,r                     10.73654460 [mEh]
    Exch-Ind20,r (A<-B) (S^inf)       4.27291311 [mEh]
    Exch-Ind20,r (A->B) (S^inf)       7.25711957 [mEh]
    Exch-Ind20,r (S^inf)             11.53003268 [mEh]

   Partial SAPT(HF) Results, to compute Delta HF (dHF)
  ---------------------------------------------------------------------------------------------------------
    Electrostatics                  -29.65182254 [mEh]    -18.60679956 [kcal/mol]    -77.85084935 [kJ/mol]
      Elst10,r                      -29.65182254 [mEh]    -18.60679956 [kcal/mol]    -77.85084935 [kJ/mol]

    Exchange                         36.67142404 [mEh]     23.01166600 [kcal/mol]     96.28081056 [kJ/mol]
      Exch10                         36.67142404 [mEh]     23.01166600 [kcal/mol]     96.28081056 [kJ/mol]
      Exch10(S^2)                    35.68383763 [mEh]     22.39194617 [kcal/mol]     93.68790279 [kJ/mol]

    Induction (no dHF)               -8.56974837 [mEh]     -5.37759829 [kcal/mol]    -22.49987124 [kJ/mol]
      Ind20,r                       -19.30629297 [mEh]    -12.11488174 [kcal/mol]    -50.68866520 [kJ/mol]
      Exch-Ind20,r                   10.73654460 [mEh]      6.73728345 [kcal/mol]     28.18879396 [kJ/mol]
      Induction (A<-B) (no dHF)      -1.90445638 [mEh]     -1.19506442 [kcal/mol]     -5.00014954 [kJ/mol]
      Induction (A->B) (no dHF)      -6.66529199 [mEh]     -4.18253387 [kcal/mol]    -17.49972170 [kJ/mol]

    Subtotal SAPT(HF)                -1.55014686 [mEh]     -0.97273184 [kcal/mol]     -4.06991003 [kJ/mol]
    Total HF                        -11.41670283 [mEh]     -7.16408918 [kcal/mol]    -29.97454914 [kJ/mol]
    Delta HF                         -9.86655596 [mEh]     -6.19135734 [kcal/mol]    -25.90463911 [kJ/mol]
  ---------------------------------------------------------------------------------------------------------
   Partial SAPT(HF) Results, alternate SAPT0-like display
  ---------------------------------------------------------------------------------------------------------
    Induction                       -18.43630433 [mEh]    -11.56895563 [kcal/mol]    -48.40451036 [kJ/mol]
      Ind20,r                       -19.30629297 [mEh]    -12.11488174 [kcal/mol]    -50.68866520 [kJ/mol]
      Exch-Ind20,r                   10.73654460 [mEh]      6.73728345 [kcal/mol]     28.18879396 [kJ/mol]
      delta HF,r (2)                 -9.86655596 [mEh]     -6.19135734 [kcal/mol]    -25.90463911 [kJ/mol]
      Induction (A<-B)               -4.09710250 [mEh]     -2.57097063 [kcal/mol]    -10.75694113 [kJ/mol]
      Induction (A->B)              -14.33920183 [mEh]     -8.99798500 [kcal/mol]    -37.64756923 [kJ/mol]
  ---------------------------------------------------------------------------------------------------------
   => Libint2 <=

    Primary   basis highest AM E, G, H:  6, 6, 3
    Auxiliary basis highest AM E, G, H:  7, 7, 4
    Onebody   basis highest AM E, G, H:  -, -, -
    Solid Harmonics ordering:            Gaussian

*** tstart() called on cmpsrv002
*** at Thu Sep 19 15:11:04 2024

   => Loading Basis Set <=

    Name: THIS_BASIS
    Role: ORBITAL
    Keyword: BASIS
    atoms 1, 3-4, 11-13 entry H          line    15 file /home/vance/anaconda3/envs/p4env/share/psi4/basis/def2-qzvp.gbs 
    atoms 2             entry CL         line   809 file /home/vance/anaconda3/envs/p4env/share/psi4/basis/def2-qzvp.gbs 
    atoms 5-7, 9-10     entry C          line   194 file /home/vance/anaconda3/envs/p4env/share/psi4/basis/def2-qzvp.gbs 
    atoms 8             entry N          line   242 file /home/vance/anaconda3/envs/p4env/share/psi4/basis/def2-qzvp.gbs 


         ---------------------------------------------------------
                          SAPT(DFT): DFT Monomer A                 
         ---------------------------------------------------------
                                   SCF
               by Justin Turney, Rob Parrish, Andy Simmonett
                          and Daniel G. A. Smith
                              RKS Reference
                        4 Threads,   7629 MiB Core
         ---------------------------------------------------------

  ==> Geometry <==

    Molecular point group: c1
    Full point group: C2v

    Geometry (in Angstrom), charge = 0, multiplicity = 1:

       Center              X                  Y                   Z               Mass       
    ------------   -----------------  -----------------  -----------------  -----------------
         H            0.000000000000     0.000000000000     1.736208712183     1.007825032230
         CL           0.000000000000     0.000000000000     3.103668712183    34.968852682000
      Gh(H)           0.000000000000    -2.147710000000    -2.599021287817     1.007825032230
      Gh(H)           0.000000000000    -2.051420000000    -0.105491287817     1.007825032230
      Gh(C)           0.000000000000     0.000000000000    -2.792821287817    12.000000000000
      Gh(C)           0.000000000000    -1.196400000000    -2.088711287817    12.000000000000
      Gh(C)           0.000000000000    -1.149310000000    -0.702771287817    12.000000000000
      Gh(N)           0.000000000000     0.000000000000    -0.029781287817    14.003074004430
      Gh(C)          -0.000000000000     1.149310000000    -0.702771287817    12.000000000000
      Gh(C)          -0.000000000000     1.196400000000    -2.088711287817    12.000000000000
      Gh(H)          -0.000000000000     2.051420000000    -0.105491287817     1.007825032230
      Gh(H)          -0.000000000000     2.147710000000    -2.599021287817     1.007825032230
      Gh(H)           0.000000000000     0.000000000000    -3.873401287817     1.007825032230

  Running in c1 symmetry.

  Rotational constants: A =      0.20108  B =      0.02912  C =      0.02544 [cm^-1]
  Rotational constants: A =   6028.26605  B =    873.13116  C =    762.66686 [MHz]
  Nuclear repulsion =    6.578629416136487

  Charge       = 0
  Multiplicity = 1
  Electrons    = 18
  Nalpha       = 9
  Nbeta        = 9

  ==> Algorithm <==

  SCF Algorithm Type is DF.
  DIIS enabled.
  MOM disabled.
  Fractional occupation disabled.
  Guess Type is SAD.
  Energy threshold   = 1.00e-08
  Density threshold  = 1.00e-08
  Integral threshold = 1.00e-12

  ==> Primary Basis <==

  Basis Set: THIS_BASIS
    Blend: DEF2-QZVP
    Number of shells: 184
    Number of basis functions: 592
    Number of Cartesian functions: 728
    Spherical Harmonics?: true
    Max angular momentum: 4

  ==> DFT Potential <==

   => LibXC <=

[...]

      22A     -0.107165    23A     -0.094492    24A     -0.052169  
      25A     -0.029961    26A     -0.025105    27A      0.001249  
      28A      0.001910    29A      0.036570    30A      0.037797  
      31A      0.038212    32A      0.058483    33A      0.062466  
      34A      0.082059    35A      0.083712    36A      0.087802  
      37A      0.099559    38A      0.105000    39A      0.119326  
      40A      0.132666    41A      0.155806    42A      0.167660  
      43A      0.174598    44A      0.179962    45A      0.188810  
      46A      0.205848    47A      0.211405    48A      0.218949  
      49A      0.236043    50A      0.242128    51A      0.242854  
      52A      0.252439    53A      0.271490    54A      0.273503  
      55A      0.284360    56A      0.308912    57A      0.314390  
      58A      0.329583    59A      0.345763    60A      0.347922  
      61A      0.360596    62A      0.377636    63A      0.387179  
      64A      0.418348    65A      0.427288    66A      0.441093  
      67A      0.452863    68A      0.458472    69A      0.466034  
      70A      0.479254    71A      0.486043    72A      0.504412  
      73A      0.566849    74A      0.567889    75A      0.569998  
      76A      0.575208    77A      0.578213    78A      0.591974  
      79A      0.625064    80A      0.627597    81A      0.631066  
      82A      0.647620    83A      0.658616    84A      0.664317  
      85A      0.668373    86A      0.671006    87A      0.675582  
      88A      0.686309    89A      0.686721    90A      0.691287  
      91A      0.695958    92A      0.698395    93A      0.721742  
      94A      0.730831    95A      0.748827    96A      0.768209  
      97A      0.786319    98A      0.793579    99A      0.797919  
     100A      0.821716   101A      0.832626   102A      0.839983  
     103A      0.842863   104A      0.842962   105A      0.853133  
     106A      0.875694   107A      0.905105   108A      0.906994  
     109A      0.907024   110A      0.933804   111A      0.940060  
     112A      0.941050   113A      0.953209   114A      0.969882  
     115A      0.982176   116A      1.004862   117A      1.008353  
     118A      1.012133   119A      1.023022   120A      1.035977  
     121A      1.059521   122A      1.069441   123A      1.101260  
     124A      1.117999   125A      1.122473   126A      1.138001  
     127A      1.147989   128A      1.196073   129A      1.196387  
     130A      1.214138   131A      1.232413   132A      1.234184  
     133A      1.245553   134A      1.291770   135A      1.371562  
     136A      1.373460   137A      1.392521   138A      1.421871  
     139A      1.424322   140A      1.495435   141A      1.502617  
     142A      1.519126   143A      1.531146   144A      1.536383  
     145A      1.554929   146A      1.586752   147A      1.608513  
     148A      1.617068   149A      1.627820   150A      1.637536  
     151A      1.668756   152A      1.683640   153A      1.692599  
     154A      1.703428   155A      1.704094   156A      1.705192  
     157A      1.726455   158A      1.737325   159A      1.740200  
     160A      1.742753   161A      1.749287   162A      1.754807  
     163A      1.796855   164A      1.804205   165A      1.821108  
     166A      1.861939   167A      1.888637   168A      1.892316  
     169A      1.898768   170A      1.908816   171A      1.912638  
     172A      1.917885   173A      1.926662   174A      1.927196  
     175A      1.931215   176A      1.972403   177A      1.989464  
     178A      1.990670   179A      2.001160   180A      2.009192  
     181A      2.014799   182A      2.019230   183A      2.029788  
     184A      2.046930   185A      2.064220   186A      2.075369  
     187A      2.088747   188A      2.116955   189A      2.119683  
     190A      2.142465   191A      2.143087   192A      2.148954  
     193A      2.178508   194A      2.189063   195A      2.189831  
     196A      2.218379   197A      2.238429   198A      2.269045  
     199A      2.274016   200A      2.283963   201A      2.287292  
     202A      2.300109   203A      2.315331   204A      2.324817  
     205A      2.333108   206A      2.336978   207A      2.361093  
     208A      2.364228   209A      2.365560   210A      2.377090  
     211A      2.382503   212A      2.388003   213A      2.432248  
     214A      2.435236   215A      2.458572   216A      2.462590  
     217A      2.469570   218A      2.471976   219A      2.488229  
     220A      2.509348   221A      2.518352   222A      2.524261  
     223A      2.524579   224A      2.527423   225A      2.539708  
     226A      2.567728   227A      2.576370   228A      2.583312  
     229A      2.595752   230A      2.616483   231A      2.637750  
     232A      2.645839   233A      2.670174   234A      2.705757  
     235A      2.719683   236A      2.735867   237A      2.746191  
     238A      2.756046   239A      2.768290   240A      2.784829  
     241A      2.822343   242A      2.849476   243A      2.850257  
     244A      2.880636   245A      2.908464   246A      2.919997  
     247A      2.967568   248A      2.972137   249A      3.037625  
     250A      3.040286   251A      3.041615   252A      3.054290  
     253A      3.085621   254A      3.132341   255A      3.145623  
     256A      3.166989   257A      3.182938   258A      3.255912  
     259A      3.256484   260A      3.260778   261A      3.295992  
     262A      3.303007   263A      3.312635   264A      3.320996  
     265A      3.361894   266A      3.380885   267A      3.416169  
     268A      3.422441   269A      3.433404   270A      3.445904  
     271A      3.470527   272A      3.484351   273A      3.496602  
     274A      3.552220   275A      3.602092   276A      3.617182  
     277A      3.622266   278A      3.632998   279A      3.650084  
     280A      3.720715   281A      3.758538   282A      3.759064  
     283A      3.811263   284A      3.836808   285A      3.837344  
     286A      3.875201   287A      3.879969   288A      3.902011  
     289A      3.927479   290A      3.944700   291A      3.968383  
     292A      4.072313   293A      4.099978   294A      4.121474  
     295A      4.125213   296A      4.172922   297A      4.186834  
     298A      4.305381   299A      4.371996   300A      4.383043  
     301A      4.410932   302A      4.436645   303A      4.437907  
     304A      4.457129   305A      4.457157   306A      4.520520  
     307A      4.575737   308A      4.581133   309A      4.604496  
     310A      4.655079   311A      4.663949   312A      4.679946  
     313A      4.737565   314A      4.754030   315A      4.814136  
     316A      4.838148   317A      4.849940   318A      4.930297  
     319A      4.978302   320A      4.987117   321A      4.992063  
     322A      4.997258   323A      5.045950   324A      5.118387  
     325A      5.165875   326A      5.169952   327A      5.170502  
     328A      5.191697   329A      5.220640   330A      5.222825  
     331A      5.256934   332A      5.288431   333A      5.303503  
     334A      5.329546   335A      5.352240   336A      5.355045  
     337A      5.360980   338A      5.396556   339A      5.408054  
     340A      5.435234   341A      5.442489   342A      5.444467  
     343A      5.471953   344A      5.473640   345A      5.499215  
     346A      5.567971   347A      5.577164   348A      5.583538  
     349A      5.603177   350A      5.666524   351A      5.670465  
     352A      5.682212   353A      5.686038   354A      5.721136  
     355A      5.723007   356A      5.726202   357A      5.739459  
     358A      5.743542   359A      5.762790   360A      5.778390  
     361A      5.787152   362A      5.796012   363A      5.811005  
     364A      5.832464   365A      5.847323   366A      5.877486  
     367A      5.896193   368A      5.925116   369A      5.940450  
     370A      5.951328   371A      5.982376   372A      5.987953  
     373A      6.001195   374A      6.002540   375A      6.017037  
     376A      6.024481   377A      6.067745   378A      6.080086  
     379A      6.086060   380A      6.097394   381A      6.098515  
     382A      6.114541   383A      6.129162   384A      6.130511  
     385A      6.148871   386A      6.186461   387A      6.192416  
     388A      6.203440   389A      6.217394   390A      6.223886  
     391A      6.228188   392A      6.230213   393A      6.239496  
     394A      6.246394   395A      6.256547   396A      6.265500  
     397A      6.285364   398A      6.304674   399A      6.326794  
     400A      6.347420   401A      6.365996   402A      6.380112  
     403A      6.384578   404A      6.405696   405A      6.470790  
     406A      6.476236   407A      6.478063   408A      6.487667  
     409A      6.495121   410A      6.531593   411A      6.538956  
     412A      6.572134   413A      6.585961   414A      6.606597  
     415A      6.612399   416A      6.635577   417A      6.651777  
     418A      6.662611   419A      6.688104   420A      6.699320  
     421A      6.721088   422A      6.739034   423A      6.758939  
     424A      6.794259   425A      6.808835   426A      6.855304  
     427A      6.881851   428A      6.903029   429A      6.910578  
     430A      6.956118   431A      6.965332   432A      6.977714  
     433A      7.018402   434A      7.057708   435A      7.072462  
     436A      7.080866   437A      7.109018   438A      7.158786  
     439A      7.222895   440A      7.248603   441A      7.248813  
     442A      7.351340   443A      7.365310   444A      7.381723  
     445A      7.382762   446A      7.432611   447A      7.435810  
     448A      7.458616   449A      7.482972   450A      7.516599  
     451A      7.517861   452A      7.536386   453A      7.575693  
     454A      7.605496   455A      7.622826   456A      7.649621  
     457A      7.651937   458A      7.668026   459A      7.690490  
     460A      7.744510   461A      7.773304   462A      7.793658  
     463A      7.832555   464A      7.860846   465A      7.898174  
     466A      7.905322   467A      7.925383   468A      7.925943  
     469A      7.943828   470A      7.955734   471A      7.962496  
     472A      7.983194   473A      8.027776   474A      8.044195  
     475A      8.058397   476A      8.071632   477A      8.072257  
     478A      8.111321   479A      8.111942   480A      8.146562  
     481A      8.182535   482A      8.201965   483A      8.258548  
     484A      8.261868   485A      8.268075   486A      8.284646  
     487A      8.290045   488A      8.309698   489A      8.325900  
     490A      8.329234   491A      8.363231   492A      8.368866  
     493A      8.383232   494A      8.400109   495A      8.429188  
     496A      8.472087   497A      8.489004   498A      8.514678  
     499A      8.548059   500A      8.563581   501A      8.614679  
     502A      8.640524   503A      8.672118   504A      8.705077  
     505A      8.722601   506A      8.737279   507A      8.747063  
     508A      8.777001   509A      8.837391   510A      8.874455  
     511A      8.875187   512A      8.975734   513A      9.023249  
     514A      9.046453   515A      9.058808   516A      9.118378  
     517A      9.129498   518A      9.191492   519A      9.244549  
     520A      9.302169   521A      9.372254   522A      9.373181  
     523A      9.447297   524A      9.456055   525A      9.480882  
     526A      9.546988   527A      9.596807   528A      9.656291  
     529A      9.675724   530A      9.676442   531A      9.722720  
     532A      9.726825   533A      9.780670   534A      9.804518  
     535A      9.818782   536A      9.857508   537A      9.973039  
     538A     10.004758   539A     10.037660   540A     10.038010  
     541A     10.060654   542A     10.121386   543A     10.174586  
     544A     10.227599   545A     10.276462   546A     10.359312  
     547A     10.378294   548A     10.478010   549A     10.511505  
     550A     10.625994   551A     10.686888   552A     10.792889  
     553A     10.993158   554A     11.093277   555A     11.741298  
     556A     11.747615   557A     11.984714   558A     12.008621  
     559A     12.078240   560A     12.298301   561A     12.632608  
     562A     12.655345   563A     12.898283   564A     13.146463  
     565A     15.417538   566A     21.607460   567A     21.626459  
     568A     21.627069   569A     21.631170   570A     21.740171  
     571A     21.767029   572A     21.873356   573A     22.414206  
     574A     28.025173   575A     28.531725   576A     28.702541  
     577A     29.042715   578A     29.242118   579A     35.722523  
     580A     37.756650   581A     85.562405   582A    118.081385  
     583A    118.081833   584A    118.119123   585A    147.241183  
     586A    147.731189   587A    147.879946   588A    148.220951  
     589A    148.437934   590A    197.252689   591A    234.055949  
     592A   1051.991206  

    Final Occupation by Irrep:
              A 
    DOCC [    21 ]
    NA   [    21 ]
    NB   [    21 ]

  @DF-RKS Final Energy:  -248.09019731346555

   => Energetics <=

    Nuclear Repulsion Energy =            206.9829300930069849
    One-Electron Energy =                -743.5468951517140113
    Two-Electron Energy =                 315.5184582380471738
    DFT Exchange-Correlation Energy =     -27.0446904928056959
    Empirical Dispersion Energy =           0.0000000000000000
    VV10 Nonlocal Energy =                  0.0000000000000000
    Total Energy =                       -248.0901973134655520

Computation Completed


Properties will be evaluated at   0.000000,   0.000000,   0.000000 [a0]

Properties computed using the SCF density matrix


 Multipole Moments:

 ------------------------------------------------------------------------------------
     Multipole            Electronic (a.u.)      Nuclear  (a.u.)        Total (a.u.)
 ------------------------------------------------------------------------------------

 L = 1.  Multiply by 2.5417464519 to convert [e a0] to [Debye]
 Dipole X            :         -0.0000000           -0.0000000           -0.0000000
 Dipole Y            :         -0.0000000           -0.0000000           -0.0000000
 Dipole Z            :        112.0362156         -112.9028478           -0.8666322
 Magnitude           :                                                    0.8666322

 ------------------------------------------------------------------------------------

*** tstop() called on cmpsrv002 at Thu Sep 19 15:25:09 2024
Module time:
	user time   =     341.69 seconds =       5.69 minutes
	system time =       7.89 seconds =       0.13 minutes
	total time  =        363 seconds =       6.05 minutes
Total time:
	user time   =     851.01 seconds =      14.18 minutes
	system time =      42.06 seconds =       0.70 minutes
	total time  =       4146 seconds =      69.10 minutes

         ---------------------------------------------------------
               SAPT(DFT): Intermolecular Interaction Segment       

                   by Daniel G. A. Smith and Rob Parrish           
         ---------------------------------------------------------

  ==> Algorithm <==

   SAPT DFT Functional             PBE0
   Monomer A GRAC Shift        0.116251
   Monomer B GRAC Shift        0.074627
   Delta HF                        True
   JK Algorithm                      DF

  ==> Preparing SAPT Data Cache <== 

  ==> DiskDFJK: Density-Fitted J/K Matrices <==

    J tasked:                  Yes
    K tasked:                  Yes
    wK tasked:                  No
    OpenMP threads:              4
    Integrals threads:           4
    Memory [MiB]:             2762
    Algorithm:                Core
    Integral Cache:           SAVE
    Schwarz Cutoff:          1E-12
    Fitting Condition:       1E-10

   => Auxiliary Basis Set <=

  Basis Set: (THIS_BASIS AUX)
    Blend: DEF2-UNIVERSAL-JKFIT
    Number of shells: 224
    Number of basis functions: 688
    Number of Cartesian functions: 813
    Spherical Harmonics?: true
    Max angular momentum: 4


  ==> E10 Electostatics <== 

    Elst10,r                        -28.54772149 [mEh]

  ==> E10 Exchange <== 

    Exch10(S^2)                      37.12761259 [mEh]
    Exch10                           38.18629268 [mEh]

  ==> E20 Induction <== 

   => Uncoupled Induction <= 

    Ind20,u (A<-B)                   -6.39738358 [mEh]
    Ind20,u (A->B)                  -14.87685138 [mEh]
    Ind20,u                         -21.27423497 [mEh]
    Exch-Ind20,u (A<-B)               4.15146392 [mEh]
    Exch-Ind20,u (A->B)               7.69910430 [mEh]
    Exch-Ind20,u                     11.85056822 [mEh]
    Exch-Ind20,u (A<-B) (S^inf)       4.41517635 [mEh]
    Exch-Ind20,u (A->B) (S^inf)       8.27777231 [mEh]
    Exch-Ind20,u (S^inf)             12.69294866 [mEh]

   => Coupled Induction <= 

   ---------------------------------------------------
              SAPT Coupled Induction Solver           
   ---------------------------------------------------
    Maxiter             =          20
    Convergence         =   1.000E-06
   ---------------------------------------------------
     Iter       (A<-B)           (B->A)      Time [s]
   ---------------------------------------------------
    Guess    1.958549e-01     2.419256e-01         36
        1    3.576714e-02     7.912588e-02         74
        2    9.577179e-03     2.573955e-02        107
        3    2.374006e-03     8.357605e-03        141
        4    2.282119e-04     1.566281e-03        181
        5    4.481385e-05     5.557956e-04        212
        6    2.534642e-06     1.115250e-04        251
        7    2.757885e-07*    3.992706e-05        307
        8    2.757885e-07*    9.409191e-06        341
        9    2.757885e-07*    1.780918e-06        375
       10    2.757885e-07*    3.773233e-07*       416
   ---------------------------------------------------

    Ind20,r (A<-B)                   -6.30377312 [mEh]
    Ind20,r (A->B)                  -15.66188234 [mEh]
    Ind20,r                         -21.96565546 [mEh]
    Exch-Ind20,r (A<-B)               4.59332323 [mEh]
    Exch-Ind20,r (A->B)               8.99058238 [mEh]
    Exch-Ind20,r                     13.58390561 [mEh]
    Exch-Ind20,r (A<-B) (S^inf)       4.88913082 [mEh]
    Exch-Ind20,r (A->B) (S^inf)       9.66762761 [mEh]
    Exch-Ind20,r (S^inf)             14.55675843 [mEh]
   => Loading Basis Set <=

    Name: (THIS_BASIS AUX)
    Role: RIFIT
    Keyword: DF_BASIS_MP2
    atoms 1, 3-4, 11-13 entry H          line    23 file /home/vance/anaconda3/envs/p4env/share/psi4/basis/def2-qzvp-ri.gbs 
    atoms 2             entry CL         line  1113 file /home/vance/anaconda3/envs/p4env/share/psi4/basis/def2-qzvp-ri.gbs 
    atoms 5-7, 9-10     entry C          line   269 file /home/vance/anaconda3/envs/p4env/share/psi4/basis/def2-qzvp-ri.gbs 
    atoms 8             entry N          line   337 file /home/vance/anaconda3/envs/p4env/share/psi4/basis/def2-qzvp-ri.gbs 



  ==> E20 Dispersion (CHF FDDS) <== 

   Legendre Points:          10
   Lambda Shift:          0.300
   Fxc Kernal:             ALDA
   (P|Fxc|Q) Thresh:  1.000e-06
  DFHelper Memory: AOs need 3.115 GiB; user supplied 5.960 GiB. 
  Using in-core AOs.

  ==> DFHelper <==
    NBF:                             592
    NAux:                           1349
    Schwarz Cutoff:                1E-12
    Mask sparsity (%):                15
    DFH Avail. Memory [GiB]:       5.960
    OpenMP threads:                    4
    Algorithm:                    DIRECT
    AO Core:                        True
    MO Core:                       False
    Hold Metric:                   False
    Metric Power:                  0.000
    Fitting Condition:             1E-12
    Q Shell Max:                      11


  DFHelper Memory: AOs need 3.633 GiB; user supplied 5.960 GiB. 
  Using in-core AOs.

