
    -----------------------------------------------------------------------
          Psi4: An Open-Source Ab Initio Electronic Structure Package
                               Psi4 1.9.1 release

                         Git: Rev {} zzzzzzz 


    D. G. A. Smith, L. A. Burns, A. C. Simmonett, R. M. Parrish,
    M. C. Schieber, R. Galvelis, P. Kraus, H. Kruse, R. Di Remigio,
    A. Alenaizan, A. M. James, S. Lehtola, J. P. Misiewicz, M. Scheurer,
    R. A. Shaw, J. B. Schriber, Y. Xie, Z. L. Glick, D. A. Sirianni,
    J. S. O'Brien, J. M. Waldrop, A. Kumar, E. G. Hohenstein,
    B. P. Pritchard, B. R. Brooks, H. F. Schaefer III, A. Yu. Sokolov,
    K. Patkowski, A. E. DePrince III, U. Bozkaya, R. A. King,
    F. A. Evangelista, J. M. Turney, T. D. Crawford, C. D. Sherrill,
    J. Chem. Phys. 152(18) 184108 (2020). https://doi.org/10.1063/5.0006002

                            Additional Code Authors
    E. T. Seidl, C. L. Janssen, E. F. Valeev, M. L. Leininger,
    J. F. Gonthier, R. M. Richard, H. R. McAlexander, M. Saitow, X. Wang,
    P. Verma, M. H. Lechner, A. Jiang, S. Behnle, A. G. Heide,
    M. F. Herbst, and D. L. Poole

             Previous Authors, Complete List of Code Contributors,
                       and Citations for Specific Modules
    https://github.com/psi4/psi4/blob/master/codemeta.json
    https://github.com/psi4/psi4/graphs/contributors
    http://psicode.org/psi4manual/master/introduction.html#citing-psifour

    -----------------------------------------------------------------------


    Psi4 started on: Thursday, 19 September 2024 02:16PM

    Process ID: 605862
    Host:       cmpsrv002
    PSIDATADIR: /home/vance/anaconda3/envs/p4env/share/psi4
    Memory:     500.0 MiB
    Threads:    8
    
  ==> Input File <==

--------------------------------------------------------------------------
#charge=0 charge_a=0 charge_b=0 selection_a=1-2 selection_b=3-13 scaling=0.9 benchmark_Eint=-10.913 benchmark_unit=kcal/mol group=XH-N
set_num_threads(4)
memory 8 GB
basis this_basis {
    assign    def2-qzvp
}

molecule {
     0 1
    --
     0 1
     H        0.00000        0.00000        1.62588
    Cl        0.00000        0.00000        2.99334
    --
     0 1
     H        0.00000       -2.14771       -2.38826
     H        0.00000       -2.05142        0.10527
     C        0.00000        0.00000       -2.58206
     C        0.00000       -1.19640       -1.87795
     C        0.00000       -1.14931       -0.49202
     N        0.00000        0.00000        0.18098
     C       -0.00000        1.14931       -0.49202
     C       -0.00000        1.19640       -1.87795
     H       -0.00000        2.05142        0.10527
     H       -0.00000        2.14771       -2.38826
     H        0.00000        0.00000       -3.66264
}

set {
    sapt_dft_functional     PBE0
    scf_type                DF
    freeze_core             true
    sapt_dft_grac_shift_a    0.116251
    sapt_dft_grac_shift_b    0.074627
    sapt_dft_do_hybrid      true
    do_ind_exch_sinf        true
    do_disp_exch_sinf       true
}

nrg = energy('sapt(DFT)')
--------------------------------------------------------------------------
  Threads set to 4 by Python driver.

  Memory set to   7.451 GiB by Python driver.

Scratch directory: /scratch2/vance/psi4/

*** tstart() called on cmpsrv002
*** at Thu Sep 19 14:16:09 2024

  SAPT does not make use of molecular symmetry, further calculations in C1 point group.

         ---------------------------------------------------------
                            SAPT(DFT) Procedure                    

                           by Daniel G. A. Smith                   
         ---------------------------------------------------------

Warning! The default value of SAPT_DFT_EXCH_DISP_SCALE_SCHEME has changed from DISP to FIXED. Please be careful comparing results with earlier versions. 

  ==> Algorithm <==

   SAPT DFT Functional             PBE0
   Monomer A GRAC Shift        0.116251
   Monomer B GRAC Shift        0.074627
   Delta HF                        True
   JK Algorithm                      DF

   Required computations:
     HF  (Dimer)
     HF  (Monomer A)
     HF  (Monomer B)
     DFT (Monomer A)
     DFT (Monomer B)

   => Libint2 <=

    Primary   basis highest AM E, G, H:  6, 6, 3
    Auxiliary basis highest AM E, G, H:  7, 7, 4
    Onebody   basis highest AM E, G, H:  -, -, -
    Solid Harmonics ordering:            Gaussian

*** tstart() called on cmpsrv002
*** at Thu Sep 19 14:16:09 2024

   => Loading Basis Set <=

    Name: THIS_BASIS
    Role: ORBITAL
    Keyword: BASIS
    atoms 1, 3-4, 11-13 entry H          line    15 file /home/vance/anaconda3/envs/p4env/share/psi4/basis/def2-qzvp.gbs 
    atoms 2             entry CL         line   809 file /home/vance/anaconda3/envs/p4env/share/psi4/basis/def2-qzvp.gbs 
    atoms 5-7, 9-10     entry C          line   194 file /home/vance/anaconda3/envs/p4env/share/psi4/basis/def2-qzvp.gbs 
    atoms 8             entry N          line   242 file /home/vance/anaconda3/envs/p4env/share/psi4/basis/def2-qzvp.gbs 


         ---------------------------------------------------------
                         SAPT(DFT): delta HF Dimer                 
         ---------------------------------------------------------
                                   SCF
               by Justin Turney, Rob Parrish, Andy Simmonett
                          and Daniel G. A. Smith
                              RHF Reference
                        4 Threads,   7629 MiB Core
         ---------------------------------------------------------

  ==> Geometry <==

    Molecular point group: c1
    Full point group: C2v

    Geometry (in Angstrom), charge = 0, multiplicity = 1:

       Center              X                  Y                   Z               Mass       
    ------------   -----------------  -----------------  -----------------  -----------------
         H           -0.000000000000     0.000000000000     1.515554325542     1.007825032230
         CL          -0.000000000000     0.000000000000     2.883014325542    34.968852682000
         H            0.000000000000    -2.147710000000    -2.498585674458     1.007825032230
         H            0.000000000000    -2.051420000000    -0.005055674458     1.007825032230
         C           -0.000000000000     0.000000000000    -2.692385674458    12.000000000000
         C            0.000000000000    -1.196400000000    -1.988275674458    12.000000000000
         C            0.000000000000    -1.149310000000    -0.602345674458    12.000000000000
         N           -0.000000000000     0.000000000000     0.070654325542    14.003074004430
         C           -0.000000000000     1.149310000000    -0.602345674458    12.000000000000
         C           -0.000000000000     1.196400000000    -1.988275674458    12.000000000000
         H           -0.000000000000     2.051420000000    -0.005055674458     1.007825032230
         H           -0.000000000000     2.147710000000    -2.498585674458     1.007825032230
         H           -0.000000000000     0.000000000000    -3.772965674458     1.007825032230

  Running in c1 symmetry.

  Rotational constants: A =      0.20108  B =      0.03302  C =      0.02836 [cm^-1]
  Rotational constants: A =   6028.26605  B =    989.88934  C =    850.26848 [MHz]
  Nuclear repulsion =  314.521546630386013

  Charge       = 0
  Multiplicity = 1
  Electrons    = 60
  Nalpha       = 30
  Nbeta        = 30

  ==> Algorithm <==

  SCF Algorithm Type is DF.
  DIIS enabled.
  MOM disabled.
  Fractional occupation disabled.
  Guess Type is SAD.
  Energy threshold   = 1.00e-08
  Density threshold  = 1.00e-08
  Integral threshold = 1.00e-12

  ==> Primary Basis <==

  Basis Set: THIS_BASIS
    Blend: DEF2-QZVP
    Number of shells: 184
    Number of basis functions: 592
    Number of Cartesian functions: 728
    Spherical Harmonics?: true
    Max angular momentum: 4

   => Loading Basis Set <=

    Name: (THIS_BASIS AUX)
    Role: JKFIT
    Keyword: DF_BASIS_SCF
    atoms 1, 3-4, 11-13 entry H          line    18 file /home/vance/anaconda3/envs/p4env/share/psi4/basis/def2-universal-jkfit.gbs 
    atoms 2             entry CL         line   986 file /home/vance/anaconda3/envs/p4env/share/psi4/basis/def2-universal-jkfit.gbs 
    atoms 5-7, 9-10     entry C          line   198 file /home/vance/anaconda3/envs/p4env/share/psi4/basis/def2-universal-jkfit.gbs 
    atoms 8             entry N          line   258 file /home/vance/anaconda3/envs/p4env/share/psi4/basis/def2-universal-jkfit.gbs 

  ==> Integral Setup <==

  ==> DiskDFJK: Density-Fitted J/K Matrices <==

    J tasked:                  Yes
    K tasked:                  Yes
    wK tasked:                  No
    OpenMP threads:              4
    Integrals threads:           4
    Memory [MiB]:             5722
    Algorithm:                Core
    Integral Cache:           SAVE
    Schwarz Cutoff:          1E-12
    Fitting Condition:       1E-10

   => Auxiliary Basis Set <=

  Basis Set: (THIS_BASIS AUX)
    Blend: DEF2-UNIVERSAL-JKFIT
    Number of shells: 224
    Number of basis functions: 688
    Number of Cartesian functions: 813
    Spherical Harmonics?: true
    Max angular momentum: 4

  Minimum eigenvalue in the overlap matrix is 1.9493193814E-05.
  Reciprocal condition number of the overlap matrix is 1.7577544305E-06.
    Using symmetric orthogonalization.

  ==> Pre-Iterations <==

  SCF Guess: Superposition of Atomic Densities via on-the-fly atomic UHF (no occupation information).

   -------------------------
    Irrep   Nso     Nmo    
   -------------------------
     A        592     592 
   -------------------------
    Total     592     592
   -------------------------

  ==> Iterations <==

                           Total Energy        Delta E     RMS |[F,P]|

   @DF-RHF iter SAD:  -706.42110312937371   -7.06421e+02   0.00000e+00 
   @DF-RHF iter   1:  -706.76763745620610   -3.46534e-01   8.53733e-04 ADIIS/DIIS
   @DF-RHF iter   2:  -706.88850467813245   -1.20867e-01   3.49139e-04 ADIIS/DIIS
   @DF-RHF iter   3:  -706.90743830365273   -1.89336e-02   7.54193e-05 DIIS
   @DF-RHF iter   4:  -706.90890435426809   -1.46605e-03   2.10189e-05 DIIS
   @DF-RHF iter   5:  -706.90899498797876   -9.06337e-05   6.72991e-06 DIIS
   @DF-RHF iter   6:  -706.90900669792882   -1.17100e-05   2.68433e-06 DIIS
   @DF-RHF iter   7:  -706.90900892124364   -2.22331e-06   9.08065e-07 DIIS
   @DF-RHF iter   8:  -706.90900928958490   -3.68341e-07   2.94010e-07 DIIS
   @DF-RHF iter   9:  -706.90900933096793   -4.13830e-08   1.06918e-07 DIIS
   @DF-RHF iter  10:  -706.90900933613727   -5.16934e-09   3.54289e-08 DIIS
   @DF-RHF iter  11:  -706.90900933716273   -1.02546e-09   1.56977e-08 DIIS
   @DF-RHF iter  12:  -706.90900933743967   -2.76941e-10   6.02454e-09 DIIS
  Energy and wave function converged.


  ==> Post-Iterations <==

    Orbital Energies [Eh]
    ---------------------

    Doubly Occupied:                                                      

       1A   -104.758923     2A    -15.608626     3A    -11.309093  
       4A    -11.309073     5A    -11.288878     6A    -11.268730  
       7A    -11.268681     8A    -10.486106     9A     -7.953067  
      10A     -7.952024    11A     -7.952005    12A     -1.306535  
      13A     -1.124992    14A     -1.070352    15A     -1.033172  
      16A     -0.894633    17A     -0.892765    18A     -0.763540  
      19A     -0.698835    20A     -0.685447    21A     -0.646709  
      22A     -0.633116    23A     -0.584113    24A     -0.557579  
      25A     -0.554119    26A     -0.424751    27A     -0.417630  
      28A     -0.405274    29A     -0.401808    30A     -0.379465  

    Virtual:                                                              

      31A      0.064760    32A      0.087268    33A      0.090330  
      34A      0.108102    35A      0.118920    36A      0.148426  
      37A      0.151391    38A      0.182762    39A      0.185253  
      40A      0.195703    41A      0.212386    42A      0.220012  
      43A      0.224256    44A      0.240486    45A      0.241598  
      46A      0.250548    47A      0.266019    48A      0.269714  
      49A      0.306373    50A      0.311880    51A      0.335437  
      52A      0.346315    53A      0.349409    54A      0.364908  
      55A      0.374452    56A      0.375539    57A      0.393430  
      58A      0.393629    59A      0.405056    60A      0.420912  
      61A      0.444364    62A      0.447819    63A      0.460593  
      64A      0.463539    65A      0.468105    66A      0.479146  
      67A      0.511896    68A      0.513018    69A      0.530621  
      70A      0.534038    71A      0.539829    72A      0.542928  
      73A      0.553554    74A      0.563711    75A      0.590535  
      76A      0.593457    77A      0.610945    78A      0.625144  
      79A      0.652170    80A      0.652249    81A      0.663318  
      82A      0.667171    83A      0.688671    84A      0.692453  
      85A      0.745475    86A      0.752833    87A      0.774992  
      88A      0.795243    89A      0.804177    90A      0.819078  
      91A      0.827153    92A      0.854140    93A      0.856777  
      94A      0.872802    95A      0.875440    96A      0.894196  
      97A      0.896793    98A      0.900685    99A      0.907778  
     100A      0.919217   101A      0.925534   102A      0.931628  
     103A      0.934508   104A      0.964799   105A      0.966057  
     106A      0.997627   107A      1.013109   108A      1.018747  
     109A      1.039020   110A      1.047240   111A      1.068353  
     112A      1.074870   113A      1.086496   114A      1.093954  
     115A      1.100933   116A      1.111581   117A      1.131413  
     118A      1.151045   119A      1.159778   120A      1.178425  
     121A      1.181192   122A      1.195965   123A      1.215573  
     124A      1.230643   125A      1.237197   126A      1.237216  
     127A      1.269614   128A      1.295782   129A      1.315729  
     130A      1.330625   131A      1.343120   132A      1.346098  
     133A      1.356677   134A      1.374172   135A      1.375061  
     136A      1.397245   137A      1.413693   138A      1.459378  
     139A      1.467190   140A      1.473351   141A      1.475049  
     142A      1.486313   143A      1.491432   144A      1.502017  
     145A      1.507755   146A      1.517775   147A      1.577734  
     148A      1.577993   149A      1.580011   150A      1.600443  
     151A      1.620939   152A      1.622888   153A      1.635493  
     154A      1.648533   155A      1.665495   156A      1.720349  
     157A      1.733985   158A      1.768345   159A      1.789924  
     160A      1.794671   161A      1.814626   162A      1.823796  
     163A      1.851883   164A      1.899230   165A      1.909232  
     166A      1.911554   167A      1.913739   168A      1.955704  
     169A      1.972456   170A      1.981357   171A      1.982406  
     172A      1.986456   173A      2.022649   174A      2.034209  
     175A      2.038964   176A      2.042349   177A      2.058770  
     178A      2.087821   179A      2.130560   180A      2.133745  
     181A      2.140953   182A      2.173518   183A      2.182112  
     184A      2.183374   185A      2.194041   186A      2.195795  
     187A      2.207536   188A      2.211199   189A      2.218869  
     190A      2.256284   191A      2.274353   192A      2.294016  
     193A      2.297154   194A      2.301771   195A      2.316222  
     196A      2.332694   197A      2.338909   198A      2.364566  
     199A      2.403368   200A      2.404882   201A      2.415192  
     202A      2.419415   203A      2.421193   204A      2.467440  
     205A      2.468571   206A      2.480555   207A      2.487558  
     208A      2.488733   209A      2.502560   210A      2.580705  
     211A      2.584578   212A      2.593332   213A      2.611927  
     214A      2.618915   215A      2.624186   216A      2.655395  
     217A      2.666569   218A      2.694921   219A      2.697349  
     220A      2.709843   221A      2.710701   222A      2.725879  
     223A      2.750830   224A      2.752814   225A      2.753594  
     226A      2.786050   227A      2.796489   228A      2.797949  
     229A      2.812829   230A      2.837836   231A      2.840537  
     232A      2.846385   233A      2.853725   234A      2.868983  
     235A      2.887468   236A      2.919986   237A      2.930130  
     238A      2.943797   239A      2.945082   240A      2.996875  
     241A      3.006054   242A      3.018719   243A      3.029349  
     244A      3.041682   245A      3.049282   246A      3.071378  
     247A      3.084735   248A      3.122858   249A      3.168997  
     250A      3.191720   251A      3.217192   252A      3.224051  
     253A      3.252909   254A      3.297308   255A      3.306078  
     256A      3.312295   257A      3.360871   258A      3.361876  
     259A      3.392010   260A      3.395930   261A      3.452190  
     262A      3.461173   263A      3.496776   264A      3.554223  
     265A      3.566091   266A      3.574494   267A      3.603380  
     268A      3.622447   269A      3.642462   270A      3.655781  
     271A      3.656645   272A      3.660136   273A      3.679083  
     274A      3.713419   275A      3.738705   276A      3.757388  
     277A      3.780275   278A      3.788954   279A      3.792376  
     280A      3.813132   281A      3.813337   282A      3.830696  
     283A      3.847426   284A      3.887825   285A      3.912387  
     286A      3.941463   287A      3.955972   288A      4.000746  
     289A      4.002088   290A      4.003766   291A      4.005358  
     292A      4.028087   293A      4.028279   294A      4.038655  
     295A      4.086037   296A      4.132212   297A      4.147274  
     298A      4.152524   299A      4.159292   300A      4.189949  
     301A      4.203596   302A      4.210435   303A      4.249543  
     304A      4.280909   305A      4.294956   306A      4.305943  
     307A      4.342255   308A      4.354577   309A      4.375866  
     310A      4.385341   311A      4.395935   312A      4.432030  
     313A      4.459367   314A      4.467934   315A      4.482450  
     316A      4.489177   317A      4.490773   318A      4.530045  
     319A      4.532238   320A      4.631028   321A      4.684841  
     322A      4.713144   323A      4.730171   324A      4.752749  
     325A      4.814050   326A      4.827366   327A      4.916301  
     328A      4.944992   329A      5.014994   330A      5.064868  
     331A      5.112478   332A      5.147830   333A      5.169252  
     334A      5.182869   335A      5.215086   336A      5.219314  
     337A      5.242254   338A      5.269391   339A      5.364434  
     340A      5.385946   341A      5.394156   342A      5.399588  
     343A      5.426570   344A      5.457709   345A      5.489342  
     346A      5.534387   347A      5.559511   348A      5.562564  
     349A      5.587563   350A      5.622296   351A      5.691474  
     352A      5.695448   353A      5.748785   354A      5.749311  
     355A      5.757122   356A      5.761391   357A      5.826924  
     358A      5.837870   359A      5.840637   360A      5.871918  
     361A      5.874469   362A      5.886138   363A      5.920303  
     364A      5.983826   365A      5.987178   366A      5.999601  
     367A      6.077986   368A      6.080567   369A      6.084044  
     370A      6.119193   371A      6.120321   372A      6.139957  
     373A      6.175482   374A      6.184535   375A      6.185370  
     376A      6.190839   377A      6.238316   378A      6.290965  
     379A      6.291756   380A      6.333966   381A      6.341333  
     382A      6.343784   383A      6.354727   384A      6.407578  
     385A      6.412931   386A      6.416694   387A      6.418657  
     388A      6.444478   389A      6.445926   390A      6.463079  
     391A      6.468440   392A      6.489154   393A      6.490729  
     394A      6.513580   395A      6.538646   396A      6.540413  
     397A      6.545408   398A      6.583824   399A      6.600176  
     400A      6.611602   401A      6.631636   402A      6.636702  
     403A      6.639996   404A      6.649384   405A      6.668813  
     406A      6.683796   407A      6.718856   408A      6.777530  
     409A      6.781415   410A      6.784604   411A      6.790614  
     412A      6.837962   413A      6.871918   414A      6.889138  
     415A      6.893479   416A      6.909323   417A      6.918762  
     418A      6.952282   419A      6.994764   420A      7.010120  
     421A      7.030440   422A      7.054954   423A      7.065636  
     424A      7.087311   425A      7.103560   426A      7.152136  
     427A      7.156789   428A      7.173583   429A      7.173648  
     430A      7.177058   431A      7.200937   432A      7.260954  
     433A      7.299270   434A      7.388420   435A      7.404690  
     436A      7.412943   437A      7.448865   438A      7.453146  
     439A      7.476503   440A      7.493742   441A      7.500106  
     442A      7.529578   443A      7.553056   444A      7.621648  
     445A      7.702613   446A      7.751776   447A      7.758498  
     448A      7.763193   449A      7.770586   450A      7.810695  
     451A      7.841587   452A      7.845404   453A      7.865783  
     454A      7.875161   455A      7.875167   456A      7.923793  
     457A      7.934235   458A      7.976993   459A      7.983680  
     460A      7.992823   461A      8.036675   462A      8.040354  
     463A      8.092682   464A      8.094526   465A      8.102347  
     466A      8.153609   467A      8.208516   468A      8.211230  
     469A      8.218675   470A      8.244681   471A      8.287027  
     472A      8.305009   473A      8.310454   474A      8.318294  
     475A      8.355146   476A      8.376518   477A      8.378778  
     478A      8.398620   479A      8.399109   480A      8.450279  
     481A      8.484518   482A      8.486446   483A      8.488271  
     484A      8.507114   485A      8.534815   486A      8.547783  
     487A      8.618295   488A      8.633935   489A      8.675965  
     490A      8.676154   491A      8.686619   492A      8.722165  
     493A      8.726102   494A      8.749919   495A      8.750908  
     496A      8.760555   497A      8.763119   498A      8.786354  
     499A      8.817992   500A      8.850085   501A      8.857125  
     502A      8.886844   503A      8.896184   504A      8.909115  
     505A      8.937743   506A      8.959458   507A      8.963844  
     508A      8.991232   509A      9.013123   510A      9.072371  
     511A      9.080257   512A      9.107219   513A      9.125715  
     514A      9.141157   515A      9.225527   516A      9.243198  
     517A      9.293863   518A      9.349520   519A      9.358337  
     520A      9.447477   521A      9.498741   522A      9.535736  
     523A      9.554014   524A      9.571121   525A      9.585886  
     526A      9.681842   527A      9.773347   528A      9.818027  
     529A      9.839850   530A      9.943367   531A      9.956842  
     532A     10.015744   533A     10.068449   534A     10.122688  
     535A     10.132978   536A     10.167106   537A     10.187816  
     538A     10.231971   539A     10.258166   540A     10.283068  
     541A     10.313689   542A     10.425490   543A     10.449400  
     544A     10.475898   545A     10.554248   546A     10.577851  
     547A     10.606863   548A     10.608693   549A     10.682882  
     550A     10.738558   551A     10.850785   552A     10.901889  
     553A     11.028748   554A     11.066920   555A     11.160776  
     556A     11.184105   557A     11.285728   558A     11.359374  
     559A     11.370896   560A     11.398990   561A     11.489026  
     562A     11.508098   563A     11.574936   564A     11.794001  
     565A     12.239318   566A     12.343078   567A     12.462594  
     568A     12.558693   569A     12.760672   570A     12.865610  
     571A     13.159498   572A     13.210130   573A     13.407392  
     574A     13.670142   575A     28.971444   576A     29.471947  
     577A     29.644846   578A     29.991473   579A     30.117973  
     580A     30.195806   581A     38.917579   582A     43.365040  
     583A     43.368496   584A     43.552741   585A    100.522550  
     586A    149.544479   587A    150.028267   588A    150.180106  
     589A    150.527557   590A    150.745814   591A    200.067335  
     592A    530.905255  

    Final Occupation by Irrep:
              A 
    DOCC [    30 ]
    NA   [    30 ]
    NB   [    30 ]

  @DF-RHF Final Energy:  -706.90900933743967

   => Energetics <=

    Nuclear Repulsion Energy =            314.5215466303860126
    One-Electron Energy =               -1593.6010241600245081
    Two-Electron Energy =                 572.1704681921988822
    Total Energy =                       -706.9090093374396702

Computation Completed


Properties will be evaluated at   0.000000,   0.000000,   0.000000 [a0]

Properties computed using the SCF density matrix


 Multipole Moments:

 ------------------------------------------------------------------------------------
     Multipole            Electronic (a.u.)      Nuclear  (a.u.)        Total (a.u.)
 ------------------------------------------------------------------------------------

 L = 1.  Multiply by 2.5417464519 to convert [e a0] to [Debye]
 Dipole X            :         -0.0000000           -0.0000000           -0.0000000
 Dipole Y            :          0.0000000           -0.0000000            0.0000000
 Dipole Z            :          6.6151556           -9.4498409           -2.8346853
 Magnitude           :                                                    2.8346853

 ------------------------------------------------------------------------------------

*** tstop() called on cmpsrv002 at Thu Sep 19 14:34:38 2024
Module time:
	user time   =      62.39 seconds =       1.04 minutes
	system time =       5.72 seconds =       0.10 minutes
	total time  =       1109 seconds =      18.48 minutes
Total time:
	user time   =      62.40 seconds =       1.04 minutes
	system time =       5.72 seconds =       0.10 minutes
	total time  =       1109 seconds =      18.48 minutes
   => Libint2 <=

    Primary   basis highest AM E, G, H:  6, 6, 3
    Auxiliary basis highest AM E, G, H:  7, 7, 4
    Onebody   basis highest AM E, G, H:  -, -, -
    Solid Harmonics ordering:            Gaussian

*** tstart() called on cmpsrv002
*** at Thu Sep 19 14:34:38 2024

   => Loading Basis Set <=

    Name: THIS_BASIS
    Role: ORBITAL
    Keyword: BASIS
    atoms 1, 3-4, 11-13 entry H          line    15 file /home/vance/anaconda3/envs/p4env/share/psi4/basis/def2-qzvp.gbs 
    atoms 2             entry CL         line   809 file /home/vance/anaconda3/envs/p4env/share/psi4/basis/def2-qzvp.gbs 
    atoms 5-7, 9-10     entry C          line   194 file /home/vance/anaconda3/envs/p4env/share/psi4/basis/def2-qzvp.gbs 
    atoms 8             entry N          line   242 file /home/vance/anaconda3/envs/p4env/share/psi4/basis/def2-qzvp.gbs 


         ---------------------------------------------------------
                       SAPT(DFT): delta HF Monomer A               
         ---------------------------------------------------------
                                   SCF
               by Justin Turney, Rob Parrish, Andy Simmonett
                          and Daniel G. A. Smith
                              RHF Reference
                        4 Threads,   7629 MiB Core
         ---------------------------------------------------------

  ==> Geometry <==

    Molecular point group: c1
    Full point group: C2v

    Geometry (in Angstrom), charge = 0, multiplicity = 1:

       Center              X                  Y                   Z               Mass       
    ------------   -----------------  -----------------  -----------------  -----------------
         H           -0.000000000000     0.000000000000     1.515554325542     1.007825032230
         CL          -0.000000000000     0.000000000000     2.883014325542    34.968852682000
      Gh(H)           0.000000000000    -2.147710000000    -2.498585674458     1.007825032230
      Gh(H)           0.000000000000    -2.051420000000    -0.005055674458     1.007825032230
      Gh(C)          -0.000000000000     0.000000000000    -2.692385674458    12.000000000000
      Gh(C)           0.000000000000    -1.196400000000    -1.988275674458    12.000000000000
      Gh(C)           0.000000000000    -1.149310000000    -0.602345674458    12.000000000000
      Gh(N)          -0.000000000000     0.000000000000     0.070654325542    14.003074004430
      Gh(C)          -0.000000000000     1.149310000000    -0.602345674458    12.000000000000
      Gh(C)          -0.000000000000     1.196400000000    -1.988275674458    12.000000000000
      Gh(H)          -0.000000000000     2.051420000000    -0.005055674458     1.007825032230
      Gh(H)          -0.000000000000     2.147710000000    -2.498585674458     1.007825032230
      Gh(H)          -0.000000000000     0.000000000000    -3.772965674458     1.007825032230

  Running in c1 symmetry.

  Rotational constants: A =      0.20108  B =      0.03302  C =      0.02836 [cm^-1]
  Rotational constants: A =   6028.26605  B =    989.88934  C =    850.26848 [MHz]
  Nuclear repulsion =    6.578629416136491

  Charge       = 0
  Multiplicity = 1
  Electrons    = 18
  Nalpha       = 9
  Nbeta        = 9

  ==> Algorithm <==

  SCF Algorithm Type is DF.
  DIIS enabled.
  MOM disabled.
  Fractional occupation disabled.
  Guess Type is SAD.
  Energy threshold   = 1.00e-08
  Density threshold  = 1.00e-08
  Integral threshold = 1.00e-12

  ==> Primary Basis <==

  Basis Set: THIS_BASIS
    Blend: DEF2-QZVP
    Number of shells: 184
    Number of basis functions: 592
    Number of Cartesian functions: 728
    Spherical Harmonics?: true
    Max angular momentum: 4

   => Loading Basis Set <=

    Name: (THIS_BASIS AUX)
    Role: JKFIT
    Keyword: DF_BASIS_SCF
    atoms 1, 3-4, 11-13 entry H          line    18 file /home/vance/anaconda3/envs/p4env/share/psi4/basis/def2-universal-jkfit.gbs 
    atoms 2             entry CL         line   986 file /home/vance/anaconda3/envs/p4env/share/psi4/basis/def2-universal-jkfit.gbs 
    atoms 5-7, 9-10     entry C          line   198 file /home/vance/anaconda3/envs/p4env/share/psi4/basis/def2-universal-jkfit.gbs 
    atoms 8             entry N          line   258 file /home/vance/anaconda3/envs/p4env/share/psi4/basis/def2-universal-jkfit.gbs 

  ==> Integral Setup <==

  ==> DiskDFJK: Density-Fitted J/K Matrices <==

    J tasked:                  Yes
    K tasked:                  Yes
    wK tasked:                  No
    OpenMP threads:              4
    Integrals threads:           4
    Memory [MiB]:             5722
    Algorithm:                Core
    Integral Cache:           SAVE
    Schwarz Cutoff:          1E-12
    Fitting Condition:       1E-10

   => Auxiliary Basis Set <=

  Basis Set: (THIS_BASIS AUX)
    Blend: DEF2-UNIVERSAL-JKFIT
    Number of shells: 224
    Number of basis functions: 688
    Number of Cartesian functions: 813
    Spherical Harmonics?: true
    Max angular momentum: 4

  Minimum eigenvalue in the overlap matrix is 1.9493193814E-05.
  Reciprocal condition number of the overlap matrix is 1.7577544305E-06.
    Using symmetric orthogonalization.

  ==> Pre-Iterations <==

  SCF Guess: Superposition of Atomic Densities via on-the-fly atomic UHF (no occupation information).

   -------------------------
    Irrep   Nso     Nmo    
   -------------------------
     A        592     592 
   -------------------------
    Total     592     592
   -------------------------

  ==> Iterations <==

                           Total Energy        Delta E     RMS |[F,P]|

   @DF-RHF iter SAD:  -459.85761985211684   -4.59858e+02   0.00000e+00 
   @DF-RHF iter   1:  -460.08219354633866   -2.24574e-01   3.75605e-04 ADIIS/DIIS
   @DF-RHF iter   2:  -460.10310660688913   -2.09131e-02   1.60862e-04 ADIIS/DIIS
   @DF-RHF iter   3:  -460.10616832990934   -3.06172e-03   2.75942e-05 DIIS
   @DF-RHF iter   4:  -460.10653108704804   -3.62757e-04   8.83795e-06 DIIS
   @DF-RHF iter   5:  -460.10657837064696   -4.72836e-05   1.56588e-06 DIIS
   @DF-RHF iter   6:  -460.10657965599563   -1.28535e-06   3.37337e-07 DIIS
   @DF-RHF iter   7:  -460.10657968126293   -2.52673e-08   7.27493e-08 DIIS
   @DF-RHF iter   8:  -460.10657968331867   -2.05574e-09   1.46553e-08 DIIS
   @DF-RHF iter   9:  -460.10657968340524   -8.65725e-11   2.20214e-09 DIIS
  Energy and wave function converged.


  ==> Post-Iterations <==

    Orbital Energies [Eh]
    ---------------------

    Doubly Occupied:                                                      

       1A   -104.853079     2A    -10.576359     3A     -8.043409  
       4A     -8.041839     5A     -8.041838     6A     -1.101157  
       7A     -0.605872     8A     -0.474634     9A     -0.474623  

    Virtual:                                                              

      10A      0.040970    11A      0.082886    12A      0.083573  
      13A      0.124846    14A      0.133729    15A      0.137764  
      16A      0.154037    17A      0.175115    18A      0.188344  
      19A      0.190678    20A      0.204076    21A      0.224542  
      22A      0.231436    23A      0.234621    24A      0.262035  
      25A      0.262609    26A      0.262634    27A      0.272262  
      28A      0.293277    29A      0.316283    30A      0.316416  
      31A      0.342160    32A      0.343703    33A      0.347531  
      34A      0.360746    35A      0.370920    36A      0.389120  
      37A      0.399110    38A      0.409673    39A      0.415047  
      40A      0.423154    41A      0.454939    42A      0.482928  
      43A      0.493169    44A      0.499193    45A      0.499775  
      46A      0.548713    47A      0.549908    48A      0.573871  
      49A      0.588816    50A      0.599391    51A      0.607210  
      52A      0.608414    53A      0.612584    54A      0.615344  
      55A      0.652289    56A      0.677725    57A      0.686628  
      58A      0.698732    59A      0.715810    60A      0.733909  
      61A      0.745416    62A      0.752584    63A      0.761469  
      64A      0.789185    65A      0.791945    66A      0.795099  
      67A      0.819917    68A      0.820556    69A      0.824050  
      70A      0.833878    71A      0.835869    72A      0.863363  
      73A      0.892393    74A      0.912603    75A      0.916265  
      76A      0.916320    77A      0.923135    78A      0.939323  
      79A      0.948124    80A      0.976835    81A      1.000944  
      82A      1.016592    83A      1.026599    84A      1.034617  
      85A      1.056661    86A      1.068363    87A      1.081897  
      88A      1.096166    89A      1.138025    90A      1.166055  
      91A      1.169737    92A      1.171916    93A      1.172007  
      94A      1.192428    95A      1.204317    96A      1.207950  
      97A      1.257448    98A      1.273913    99A      1.296879  
     100A      1.303306   101A      1.315533   102A      1.318406  
     103A      1.332305   104A      1.360431   105A      1.372471  
     106A      1.372919   107A      1.382400   108A      1.400905  
     109A      1.403756   110A      1.411136   111A      1.425580  
     112A      1.434170   113A      1.446140   114A      1.473560  
     115A      1.480428   116A      1.485514   117A      1.507975  
     118A      1.508905   119A      1.514795   120A      1.532312  
     121A      1.550782   122A      1.556840   123A      1.563754  
     124A      1.564637   125A      1.598677   126A      1.599329  
     127A      1.611750   128A      1.622635   129A      1.631899  
     130A      1.661841   131A      1.674052   132A      1.700009  
     133A      1.712263   134A      1.727954   135A      1.747060  
     136A      1.755445   137A      1.788152   138A      1.825281  
     139A      1.837048   140A      1.841427   141A      1.865481  
     142A      1.885869   143A      1.909240   144A      1.935002  
     145A      1.942379   146A      1.957251   147A      1.971118  
     148A      1.976266   149A      2.035012   150A      2.083541  
     151A      2.098832   152A      2.159722   153A      2.165919  
     154A      2.177501   155A      2.181946   156A      2.248269  
     157A      2.289137   158A      2.319115   159A      2.338993  
     160A      2.343950   161A      2.362014   162A      2.365326  
     163A      2.375293   164A      2.424123   165A      2.424301  
     166A      2.427326   167A      2.428972   168A      2.441938  
     169A      2.454863   170A      2.475032   171A      2.517883  
     172A      2.519447   173A      2.522495   174A      2.536353  
     175A      2.539347   176A      2.552254   177A      2.557229  
     178A      2.569869   179A      2.574460   180A      2.575149  
     181A      2.596350   182A      2.601988   183A      2.613178  
     184A      2.624481   185A      2.632717   186A      2.634283  
     187A      2.642815   188A      2.662470   189A      2.668576  
     190A      2.685121   191A      2.706187   192A      2.707617  
     193A      2.749610   194A      2.751059   195A      2.765340  
     196A      2.792165   197A      2.800194   198A      2.811890  
     199A      2.833630   200A      2.849823   201A      2.879120  
     202A      2.886881   203A      2.907439   204A      2.914235  
     205A      2.929773   206A      2.945751   207A      2.948814  
     208A      2.975024   209A      2.979176   210A      2.999776  
     211A      3.004591   212A      3.029653   213A      3.032925  
     214A      3.046734   215A      3.061608   216A      3.092111  
     217A      3.114824   218A      3.121783   219A      3.127724  
     220A      3.145894   221A      3.165151   222A      3.187060  
     223A      3.196425   224A      3.202847   225A      3.233368  
     226A      3.269309   227A      3.276673   228A      3.301133  
     229A      3.343650   230A      3.351361   231A      3.369757  
     232A      3.389795   233A      3.403864   234A      3.437277  
     235A      3.454697   236A      3.480289   237A      3.502074  
     238A      3.557384   239A      3.558555   240A      3.572830  
     241A      3.575019   242A      3.586430   243A      3.607199  
     244A      3.613944   245A      3.635659   246A      3.650255  
     247A      3.675862   248A      3.689425   249A      3.699652  
     250A      3.743249   251A      3.762135   252A      3.786167  
     253A      3.817147   254A      3.847627   255A      3.875482  
     256A      3.912759   257A      3.913319   258A      3.929895  
     259A      3.930816   260A      3.936114   261A      3.962367  
     262A      3.962514   263A      3.984880   264A      4.035581  
     265A      4.078027   266A      4.080032   267A      4.105379  
     268A      4.135707   269A      4.138631   270A      4.180469  
     271A      4.188458   272A      4.193758   273A      4.229171  
     274A      4.244375   275A      4.249801   276A      4.255456  
     277A      4.276652   278A      4.303871   279A      4.314622  
     280A      4.322585   281A      4.365568   282A      4.365584  
     283A      4.418899   284A      4.474069   285A      4.492031  
     286A      4.500948   287A      4.521216   288A      4.562212  
     289A      4.574423   290A      4.611374   291A      4.649512  
     292A      4.650393   293A      4.660556   294A      4.700886  
     295A      4.736526   296A      4.784382   297A      4.791739  
     298A      4.865603   299A      4.888889   300A      4.903768  
     301A      5.036209   302A      5.042971   303A      5.056309  
     304A      5.059656   305A      5.150233   306A      5.161511  
     307A      5.252219   308A      5.306398   309A      5.358325  
     310A      5.456628   311A      5.473440   312A      5.581356  
     313A      5.649375   314A      5.708196   315A      5.728612  
     316A      5.743579   317A      5.787300   318A      5.846769  
     319A      5.865857   320A      5.890181   321A      5.893283  
     322A      5.926105   323A      5.941078   324A      5.983407  
     325A      6.011402   326A      6.012727   327A      6.025914  
     328A      6.032020   329A      6.079924   330A      6.084370  
     331A      6.095755   332A      6.102380   333A      6.115504  
     334A      6.126864   335A      6.156218   336A      6.185515  
     337A      6.200334   338A      6.266638   339A      6.271174  
     340A      6.271860   341A      6.276601   342A      6.339286  
     343A      6.391078   344A      6.411889   345A      6.419464  
     346A      6.451316   347A      6.487670   348A      6.498236  
     349A      6.520368   350A      6.555917   351A      6.573419  
     352A      6.578556   353A      6.593273   354A      6.642327  
     355A      6.658357   356A      6.706845   357A      6.712367  
     358A      6.747611   359A      6.766296   360A      6.798940  
     361A      6.834623   362A      6.844738   363A      6.863172  
     364A      6.877193   365A      6.887573   366A      6.920137  
     367A      6.925874   368A      6.938709   369A      6.972163  
     370A      7.020056   371A      7.023921   372A      7.036286  
     373A      7.051597   374A      7.061654   375A      7.077476  
     376A      7.101136   377A      7.139497   378A      7.141325  
     379A      7.171472   380A      7.192496   381A      7.206876  
     382A      7.256989   383A      7.261161   384A      7.279999  
     385A      7.292924   386A      7.392195   387A      7.404317  
     388A      7.439930   389A      7.441734   390A      7.442182  
     391A      7.478843   392A      7.513570   393A      7.528988  
     394A      7.631159   395A      7.632794   396A      7.654987  
     397A      7.665866   398A      7.681064   399A      7.684106  
     400A      7.707266   401A      7.714270   402A      7.745699  
     403A      7.748171   404A      7.775114   405A      7.797685  
     406A      7.835314   407A      7.843233   408A      7.889649  
     409A      7.930416   410A      7.979120   411A      8.011397  
     412A      8.015372   413A      8.029915   414A      8.058867  
     415A      8.071661   416A      8.079875   417A      8.153474  
     418A      8.185410   419A      8.249910   420A      8.262070  
     421A      8.263558   422A      8.306128   423A      8.338666  
     424A      8.349477   425A      8.350196   426A      8.351480  
     427A      8.395011   428A      8.415066   429A      8.425042  
     430A      8.425963   431A      8.431821   432A      8.455011  
     433A      8.490226   434A      8.521563   435A      8.539626  
     436A      8.556207   437A      8.569406   438A      8.641740  
     439A      8.651830   440A      8.672190   441A      8.676014  
     442A      8.678337   443A      8.706670   444A      8.730044  
     445A      8.750594   446A      8.780550   447A      8.831260  
     448A      8.847983   449A      8.919986   450A      8.921422  
     451A      8.937840   452A      8.948763   453A      8.984484  
     454A      8.991493   455A      8.997768   456A      9.036894  
     457A      9.037134   458A      9.063178   459A      9.063555  
     460A      9.073394   461A      9.076022   462A      9.121710  
     463A      9.125279   464A      9.130325   465A      9.137673  
     466A      9.143104   467A      9.198663   468A      9.213442  
     469A      9.259735   470A      9.261143   471A      9.262379  
     472A      9.262744   473A      9.271537   474A      9.313698  
     475A      9.371103   476A      9.397096   477A      9.402360  
     478A      9.405410   479A      9.413031   480A      9.439557  
     481A      9.462524   482A      9.495301   483A      9.518136  
     484A      9.547877   485A      9.568516   486A      9.604054  
     487A      9.619244   488A      9.642533   489A      9.644256  
     490A      9.738617   491A      9.753943   492A      9.772852  
     493A      9.837331   494A      9.932078   495A      9.932377  
     496A     10.007316   497A     10.033799   498A     10.060666  
     499A     10.061562   500A     10.157983   501A     10.201142  
     502A     10.230826   503A     10.363211   504A     10.380819  
     505A     10.416628   506A     10.439186   507A     10.454260  
     508A     10.455713   509A     10.560598   510A     10.599566  
     511A     10.608455   512A     10.618406   513A     10.626938  
     514A     10.708526   515A     10.713953   516A     10.772279  
     517A     10.790333   518A     10.892465   519A     10.935018  
     520A     10.954284   521A     10.958281   522A     11.005284  
     523A     11.072072   524A     11.179686   525A     11.190285  
     526A     11.202439   527A     11.235147   528A     11.278805  
     529A     11.289641   530A     11.371073   531A     11.372036  
     532A     11.416177   533A     11.447763   534A     11.469364  
     535A     11.470021   536A     11.579537   537A     11.676999  
     538A     11.722949   539A     11.831590   540A     11.875373  
     541A     11.886243   542A     11.919027   543A     12.006394  
     544A     12.041101   545A     12.236073   546A     12.263687  
     547A     12.305950   548A     12.367109   549A     12.464633  
     550A     12.649929   551A     12.742650   552A     12.901300  
     553A     13.219073   554A     13.351461   555A     13.579993  
     556A     13.642234   557A     13.838442   558A     14.020533  
     559A     14.059104   560A     14.243355   561A     14.313953  
     562A     14.738917   563A     14.796799   564A     15.050759  
     565A     15.502474   566A     15.834718   567A     16.133249  
     568A     17.111632   569A     18.590796   570A     19.138854  
     571A     19.233479   572A     19.504100   573A     19.588706  
     574A     24.745392   575A     30.035197   576A     43.273969  
     577A     43.277469   578A     43.460036   579A     51.553721  
     580A     51.965022   581A     52.107137   582A     52.388008  
     583A     52.559355   584A     69.936466   585A    100.431167  
     586A    236.249653   587A    236.748729   588A    236.912704  
     589A    237.258289   590A    237.480282   591A    318.182157  
     592A    530.811752  

    Final Occupation by Irrep:
              A 
    DOCC [     9 ]
    NA   [     9 ]
    NB   [     9 ]

  @DF-RHF Final Energy:  -460.10657968340524

   => Energetics <=

    Nuclear Repulsion Energy =              6.5786294161364909
    One-Electron Energy =                -648.9448000658942419
    Two-Electron Energy =                 182.2595909663525333
    Total Energy =                       -460.1065796834052435

Computation Completed


Properties will be evaluated at   0.000000,   0.000000,   0.000000 [a0]

Properties computed using the SCF density matrix


 Multipole Moments:

 ------------------------------------------------------------------------------------
     Multipole            Electronic (a.u.)      Nuclear  (a.u.)        Total (a.u.)
 ------------------------------------------------------------------------------------

 L = 1.  Multiply by 2.5417464519 to convert [e a0] to [Debye]
 Dipole X            :         -0.0000000           -0.0000000           -0.0000000
 Dipole Y            :         -0.0000000            0.0000000           -0.0000000
 Dipole Z            :        -95.9920673           95.4818100           -0.5102574
 Magnitude           :                                                    0.5102574

 ------------------------------------------------------------------------------------

*** tstop() called on cmpsrv002 at Thu Sep 19 14:54:45 2024
Module time:
	user time   =      31.40 seconds =       0.52 minutes
	system time =      14.72 seconds =       0.25 minutes
	total time  =       1207 seconds =      20.12 minutes
Total time:
	user time   =      93.81 seconds =       1.56 minutes
	system time =      20.44 seconds =       0.34 minutes
	total time  =       2316 seconds =      38.60 minutes
   => Libint2 <=

    Primary   basis highest AM E, G, H:  6, 6, 3
    Auxiliary basis highest AM E, G, H:  7, 7, 4
    Onebody   basis highest AM E, G, H:  -, -, -
    Solid Harmonics ordering:            Gaussian

*** tstart() called on cmpsrv002
*** at Thu Sep 19 14:54:45 2024

   => Loading Basis Set <=

    Name: THIS_BASIS
    Role: ORBITAL
    Keyword: BASIS
    atoms 1, 3-4, 11-13 entry H          line    15 file /home/vance/anaconda3/envs/p4env/share/psi4/basis/def2-qzvp.gbs 
    atoms 2             entry CL         line   809 file /home/vance/anaconda3/envs/p4env/share/psi4/basis/def2-qzvp.gbs 
    atoms 5-7, 9-10     entry C          line   194 file /home/vance/anaconda3/envs/p4env/share/psi4/basis/def2-qzvp.gbs 
    atoms 8             entry N          line   242 file /home/vance/anaconda3/envs/p4env/share/psi4/basis/def2-qzvp.gbs 


         ---------------------------------------------------------
                       SAPT(DFT): delta HF Monomer B               
         ---------------------------------------------------------
                                   SCF
               by Justin Turney, Rob Parrish, Andy Simmonett
                          and Daniel G. A. Smith
                              RHF Reference
                        4 Threads,   7629 MiB Core
         ---------------------------------------------------------

  ==> Geometry <==

    Molecular point group: c1
    Full point group: C2v

    Geometry (in Angstrom), charge = 0, multiplicity = 1:

       Center              X                  Y                   Z               Mass       
    ------------   -----------------  -----------------  -----------------  -----------------
      Gh(H)          -0.000000000000     0.000000000000     1.515554325542     1.007825032230
      Gh(CL)         -0.000000000000     0.000000000000     2.883014325542    34.968852682000
         H            0.000000000000    -2.147710000000    -2.498585674458     1.007825032230
         H            0.000000000000    -2.051420000000    -0.005055674458     1.007825032230
         C           -0.000000000000     0.000000000000    -2.692385674458    12.000000000000
         C            0.000000000000    -1.196400000000    -1.988275674458    12.000000000000
         C            0.000000000000    -1.149310000000    -0.602345674458    12.000000000000
         N           -0.000000000000     0.000000000000     0.070654325542    14.003074004430
         C           -0.000000000000     1.149310000000    -0.602345674458    12.000000000000
         C           -0.000000000000     1.196400000000    -1.988275674458    12.000000000000
         H           -0.000000000000     2.051420000000    -0.005055674458     1.007825032230
         H           -0.000000000000     2.147710000000    -2.498585674458     1.007825032230
         H           -0.000000000000     0.000000000000    -3.772965674458     1.007825032230

  Running in c1 symmetry.

  Rotational constants: A =      0.20108  B =      0.03302  C =      0.02836 [cm^-1]
  Rotational constants: A =   6028.26605  B =    989.88934  C =    850.26848 [MHz]
  Nuclear repulsion =  206.983074898244126

  Charge       = 0
  Multiplicity = 1
  Electrons    = 42
  Nalpha       = 21
  Nbeta        = 21

  ==> Algorithm <==

  SCF Algorithm Type is DF.
  DIIS enabled.
  MOM disabled.
  Fractional occupation disabled.
  Guess Type is SAD.
  Energy threshold   = 1.00e-08
  Density threshold  = 1.00e-08
  Integral threshold = 1.00e-12

  ==> Primary Basis <==

  Basis Set: THIS_BASIS
    Blend: DEF2-QZVP
    Number of shells: 184
    Number of basis functions: 592
    Number of Cartesian functions: 728
    Spherical Harmonics?: true
    Max angular momentum: 4

   => Loading Basis Set <=

    Name: (THIS_BASIS AUX)
    Role: JKFIT
    Keyword: DF_BASIS_SCF
    atoms 1, 3-4, 11-13 entry H          line    18 file /home/vance/anaconda3/envs/p4env/share/psi4/basis/def2-universal-jkfit.gbs 
    atoms 2             entry CL         line   986 file /home/vance/anaconda3/envs/p4env/share/psi4/basis/def2-universal-jkfit.gbs 
    atoms 5-7, 9-10     entry C          line   198 file /home/vance/anaconda3/envs/p4env/share/psi4/basis/def2-universal-jkfit.gbs 
    atoms 8             entry N          line   258 file /home/vance/anaconda3/envs/p4env/share/psi4/basis/def2-universal-jkfit.gbs 

  ==> Integral Setup <==

  ==> DiskDFJK: Density-Fitted J/K Matrices <==

    J tasked:                  Yes
    K tasked:                  Yes
    wK tasked:                  No
    OpenMP threads:              4
    Integrals threads:           4
    Memory [MiB]:             5722
    Algorithm:                Core
    Integral Cache:           SAVE
    Schwarz Cutoff:          1E-12
    Fitting Condition:       1E-10

   => Auxiliary Basis Set <=

  Basis Set: (THIS_BASIS AUX)
    Blend: DEF2-UNIVERSAL-JKFIT
    Number of shells: 224
    Number of basis functions: 688
    Number of Cartesian functions: 813
    Spherical Harmonics?: true
    Max angular momentum: 4

  Minimum eigenvalue in the overlap matrix is 1.9493193814E-05.
  Reciprocal condition number of the overlap matrix is 1.7577544305E-06.
    Using symmetric orthogonalization.

  ==> Pre-Iterations <==

  SCF Guess: Superposition of Atomic Densities via on-the-fly atomic UHF (no occupation information).

   -------------------------
    Irrep   Nso     Nmo    
   -------------------------
     A        592     592 
   -------------------------
    Total     592     592
   -------------------------

  ==> Iterations <==

                           Total Energy        Delta E     RMS |[F,P]|

   @DF-RHF iter SAD:  -246.24945912058882   -2.46249e+02   0.00000e+00 
   @DF-RHF iter   1:  -246.65244602990933   -4.02987e-01   8.31457e-04 ADIIS/DIIS
   @DF-RHF iter   2:  -246.76971924968643   -1.17273e-01   3.85553e-04 ADIIS/DIIS
   @DF-RHF iter   3:  -246.79372033152802   -2.40011e-02   7.67581e-05 DIIS
   @DF-RHF iter   4:  -246.79513650767575   -1.41618e-03   2.43132e-05 DIIS
   @DF-RHF iter   5:  -246.79523656485463   -1.00057e-04   7.13904e-06 DIIS
   @DF-RHF iter   6:  -246.79524777083265   -1.12060e-05   1.71467e-06 DIIS
   @DF-RHF iter   7:  -246.79524866907497   -8.98242e-07   6.44066e-07 DIIS
   @DF-RHF iter   8:  -246.79524880656211   -1.37487e-07   2.89088e-07 DIIS
   @DF-RHF iter   9:  -246.79524885812549   -5.15634e-08   9.33465e-08 DIIS
   @DF-RHF iter  10:  -246.79524886634405   -8.21836e-09   3.16340e-08 DIIS
   @DF-RHF iter  11:  -246.79524886743027   -1.08622e-09   1.81210e-08 DIIS
   @DF-RHF iter  12:  -246.79524886765469   -2.24418e-10   4.15790e-09 DIIS
  Energy and wave function converged.


  ==> Post-Iterations <==

    Orbital Energies [Eh]
    ---------------------

    Doubly Occupied:                                                      

       1A    -15.560455     2A    -11.272212     3A    -11.272194  
       4A    -11.257401     5A    -11.239965     6A    -11.239910  
       7A     -1.259508     8A     -1.088827     9A     -1.037041  
      10A     -0.858516    11A     -0.858397    12A     -0.723771  
      13A     -0.662706    14A     -0.654406    15A     -0.602460  
      16A     -0.575814    17A     -0.543686    18A     -0.523244  
      19A     -0.413606    20A     -0.383638    21A     -0.349742  

    Virtual:                                                              

      22A      0.097367    23A      0.099382    24A      0.111464  
      25A      0.114051    26A      0.121153    27A      0.141735  
      28A      0.151599    29A      0.175740    30A      0.188712  
      31A      0.206150    32A      0.207609    33A      0.218788  
      34A      0.227124    35A      0.242015    36A      0.247353  
      37A      0.257204    38A      0.263815    39A      0.268457  
      40A      0.298644    41A      0.309042    42A      0.318562  
      43A      0.331266    44A      0.365319    45A      0.376756  
      46A      0.378937    47A      0.397247    48A      0.401372  
      49A      0.411153    50A      0.426315    51A      0.449186  
      52A      0.456204    53A      0.477873    54A      0.479314  
      55A      0.493691    56A      0.503143    57A      0.505708  
      58A      0.514824    59A      0.537899    60A      0.539180  
      61A      0.552963    62A      0.564479    63A      0.566432  
      64A      0.617565    65A      0.632290    66A      0.648889  
      67A      0.651552    68A      0.685789    69A      0.686763  
      70A      0.692950    71A      0.703982    72A      0.741352  
      73A      0.742684    74A      0.758219    75A      0.767327  
      76A      0.777341    77A      0.789450    78A      0.808440  
      79A      0.811208    80A      0.813655    81A      0.835626  
      82A      0.843530    83A      0.862770    84A      0.872070  
      85A      0.880885    86A      0.881840    87A      0.901979  
      88A      0.914460    89A      0.922798    90A      0.925706  
      91A      0.944366    92A      0.947377    93A      0.953200  
      94A      0.957802    95A      0.964811    96A      0.994224  
      97A      0.999467    98A      1.006053    99A      1.026608  
     100A      1.043504   101A      1.043735   102A      1.060034  
     103A      1.064368   104A      1.097796   105A      1.099256  
     106A      1.105899   107A      1.116251   108A      1.117505  
     109A      1.142377   110A      1.172252   111A      1.177201  
     112A      1.183707   113A      1.187055   114A      1.204330  
     115A      1.225692   116A      1.231178   117A      1.245547  
     118A      1.264160   119A      1.267399   120A      1.278396  
     121A      1.293023   122A      1.328364   123A      1.359253  
     124A      1.362013   125A      1.393903   126A      1.405329  
     127A      1.409576   128A      1.429733   129A      1.448406  
     130A      1.491191   131A      1.496134   132A      1.519512  
     133A      1.538511   134A      1.557225   135A      1.611046  
     136A      1.649302   137A      1.681820   138A      1.683516  
     139A      1.701352   140A      1.748741   141A      1.781819  
     142A      1.782221   143A      1.783212   144A      1.812366  
     145A      1.815475   146A      1.817883   147A      1.839466  
     148A      1.852243   149A      1.868532   150A      1.871753  
     151A      1.904736   152A      1.930838   153A      1.942615  
     154A      1.946742   155A      1.982813   156A      2.002321  
     157A      2.015720   158A      2.018183   159A      2.036832  
     160A      2.060375   161A      2.062679   162A      2.071195  
     163A      2.098808   164A      2.105995   165A      2.107081  
     166A      2.125433   167A      2.134806   168A      2.182244  
     169A      2.189940   170A      2.205228   171A      2.213993  
     172A      2.222670   173A      2.226666   174A      2.230677  
     175A      2.241006   176A      2.246296   177A      2.253126  
     178A      2.274737   179A      2.292742   180A      2.293289  
     181A      2.320348   182A      2.343130   183A      2.345758  
     184A      2.346964   185A      2.373824   186A      2.384433  
     187A      2.393606   188A      2.395911   189A      2.436351  
     190A      2.440275   191A      2.441081   192A      2.451822  
     193A      2.452626   194A      2.456951   195A      2.459490  
     196A      2.468819   197A      2.495334   198A      2.499565  
     199A      2.534892   200A      2.535471   201A      2.552726  
     202A      2.568402   203A      2.572231   204A      2.623198  
     205A      2.631764   206A      2.647976   207A      2.662769  
     208A      2.676546   209A      2.677893   210A      2.699637  
     211A      2.713907   212A      2.725890   213A      2.753659  
     214A      2.769127   215A      2.770628   216A      2.771280  
     217A      2.780947   218A      2.782464   219A      2.805333  
     220A      2.842271   221A      2.843482   222A      2.847419  
     223A      2.859781   224A      2.886619   225A      2.905872  
     226A      2.906765   227A      2.909372   228A      2.915027  
     229A      2.934265   230A      2.951575   231A      2.963497  
     232A      2.995469   233A      3.039488   234A      3.041908  
     235A      3.064205   236A      3.067083   237A      3.074902  
     238A      3.077817   239A      3.120650   240A      3.120821  
     241A      3.170866   242A      3.221236   243A      3.223647  
     244A      3.246170   245A      3.298724   246A      3.303876  
     247A      3.310925   248A      3.331804   249A      3.347301  
     250A      3.391896   251A      3.402259   252A      3.450218  
     253A      3.472376   254A      3.489749   255A      3.552414  
     256A      3.583579   257A      3.597931   258A      3.614954  
     259A      3.628368   260A      3.633058   261A      3.640816  
     262A      3.644566   263A      3.688666   264A      3.702190  
     265A      3.702498   266A      3.722256   267A      3.751742  
     268A      3.824147   269A      3.834265   270A      3.836109  
     271A      3.838952   272A      3.866703   273A      3.873080  
     274A      3.950077   275A      3.951205   276A      3.959621  
     277A      3.993806   278A      4.049732   279A      4.054179  
     280A      4.135020   281A      4.181973   282A      4.201973  
     283A      4.215899   284A      4.216825   285A      4.262869  
     286A      4.316195   287A      4.337322   288A      4.355005  
     289A      4.368219   290A      4.370695   291A      4.437176  
     292A      4.483602   293A      4.505844   294A      4.526453  
     295A      4.527653   296A      4.557885   297A      4.564200  
     298A      4.569032   299A      4.574735   300A      4.574958  
     301A      4.642633   302A      4.749820   303A      4.775404  
     304A      4.828933   305A      4.847506   306A      4.857744  
     307A      4.912146   308A      5.011520   309A      5.012882  
     310A      5.098182   311A      5.123255   312A      5.137873  
     313A      5.184308   314A      5.198176   315A      5.244402  
     316A      5.275712   317A      5.283810   318A      5.397863  
     319A      5.403097   320A      5.415438   321A      5.426399  
     322A      5.430243   323A      5.443744   324A      5.450190  
     325A      5.481759   326A      5.562149   327A      5.593406  
     328A      5.606231   329A      5.627803   330A      5.640725  
     331A      5.650579   332A      5.678038   333A      5.682534  
     334A      5.755743   335A      5.765388   336A      5.782629  
     337A      5.791121   338A      5.798831   339A      5.810542  
     340A      5.834910   341A      5.838481   342A      5.857484  
     343A      5.859070   344A      5.859561   345A      5.872735  
     346A      5.877689   347A      5.904088   348A      5.916285  
     349A      5.920011   350A      5.934860   351A      5.959096  
     352A      6.016908   353A      6.017529   354A      6.035784  
     355A      6.076005   356A      6.102766   357A      6.117934  
     358A      6.145382   359A      6.150303   360A      6.194256  
     361A      6.213886   362A      6.215208   363A      6.227170  
     364A      6.259160   365A      6.298528   366A      6.322452  
     367A      6.344562   368A      6.351383   369A      6.353782  
     370A      6.371417   371A      6.385430   372A      6.403947  
     373A      6.426476   374A      6.438631   375A      6.439148  
     376A      6.445836   377A      6.451999   378A      6.465292  
     379A      6.480160   380A      6.488406   381A      6.489626  
     382A      6.498575   383A      6.520304   384A      6.521070  
     385A      6.531122   386A      6.547347   387A      6.569391  
     388A      6.572384   389A      6.577265   390A      6.619328  
     391A      6.632551   392A      6.659955   393A      6.661178  
     394A      6.669606   395A      6.672639   396A      6.674159  
     397A      6.675050   398A      6.692269   399A      6.717886  
     400A      6.749843   401A      6.793063   402A      6.796100  
     403A      6.821740   404A      6.833802   405A      6.853726  
     406A      6.877270   407A      6.919337   408A      6.923389  
     409A      6.929775   410A      6.946875   411A      6.954540  
     412A      7.035443   413A      7.038514   414A      7.044253  
     415A      7.051477   416A      7.064009   417A      7.084311  
     418A      7.106186   419A      7.106547   420A      7.157794  
     421A      7.193336   422A      7.200888   423A      7.240624  
     424A      7.267617   425A      7.306389   426A      7.323076  
     427A      7.330066   428A      7.351940   429A      7.394399  
     430A      7.425937   431A      7.461015   432A      7.463700  
     433A      7.486518   434A      7.525886   435A      7.554008  
     436A      7.561367   437A      7.588979   438A      7.629203  
     439A      7.727114   440A      7.743741   441A      7.785969  
     442A      7.797407   443A      7.808092   444A      7.842565  
     445A      7.873031   446A      7.905443   447A      7.907021  
     448A      7.909230   449A      7.918707   450A      7.967115  
     451A      7.981692   452A      8.016653   453A      8.021819  
     454A      8.044954   455A      8.105842   456A      8.122460  
     457A      8.129199   458A      8.140754   459A      8.162542  
     460A      8.181336   461A      8.187641   462A      8.236734  
     463A      8.297720   464A      8.314601   465A      8.338305  
     466A      8.353217   467A      8.363819   468A      8.378563  
     469A      8.396353   470A      8.416369   471A      8.444683  
     472A      8.483442   473A      8.503520   474A      8.513186  
     475A      8.515747   476A      8.520293   477A      8.523621  
     478A      8.589576   479A      8.597486   480A      8.622064  
     481A      8.691642   482A      8.698113   483A      8.711073  
     484A      8.725870   485A      8.732220   486A      8.760271  
     487A      8.775917   488A      8.798180   489A      8.807692  
     490A      8.809257   491A      8.830253   492A      8.860921  
     493A      8.882748   494A      8.885382   495A      8.918257  
     496A      8.925752   497A      8.937246   498A      8.991351  
     499A      9.009446   500A      9.038422   501A      9.054203  
     502A      9.133102   503A      9.138988   504A      9.148691  
     505A      9.149563   506A      9.170137   507A      9.209947  
     508A      9.246123   509A      9.329243   510A      9.355746  
     511A      9.360913   512A      9.530529   513A      9.577861  
     514A      9.583386   515A      9.655094   516A      9.685195  
     517A      9.728506   518A      9.759502   519A      9.814804  
     520A      9.857260   521A      9.872543   522A      9.879097  
     523A     10.002637   524A     10.015231   525A     10.046638  
     526A     10.096107   527A     10.112633   528A     10.152569  
     529A     10.166572   530A     10.196439   531A     10.206472  
     532A     10.229044   533A     10.301788   534A     10.329386  
     535A     10.349377   536A     10.447448   537A     10.479003  
     538A     10.560298   539A     10.585080   540A     10.605940  
     541A     10.612043   542A     10.676374   543A     10.724805  
     544A     10.778256   545A     10.819182   546A     10.940243  
     547A     11.055277   548A     11.162969   549A     11.208512  
     550A     11.218019   551A     11.327443   552A     11.445897  
     553A     11.509030   554A     11.847649   555A     12.275839  
     556A     12.481191   557A     12.527206   558A     12.603689  
     559A     12.853493   560A     13.016259   561A     13.191613  
     562A     13.278126   563A     13.438766   564A     13.701280  
     565A     15.593624   566A     21.733519   567A     21.751503  
     568A     21.758257   569A     21.760303   570A     21.891297  
     571A     21.928136   572A     22.023607   573A     22.711752  
     574A     29.004333   575A     29.504896   576A     29.679352  
     577A     30.024244   578A     30.223313   579A     35.897694  
     580A     38.969228   581A     85.739770   582A    118.207002  
     583A    118.207652   584A    118.250127   585A    149.576545  
     586A    150.061263   587A    150.214183   588A    150.560208  
     589A    150.776578   590A    200.115843   591A    234.239223  
     592A   1052.248625  

    Final Occupation by Irrep:
              A 
    DOCC [    21 ]
    NA   [    21 ]
    NB   [    21 ]

  @DF-RHF Final Energy:  -246.79524886765469

   => Energetics <=

    Nuclear Repulsion Energy =            206.9830748982441264
    One-Electron Energy =                -742.8016511094185717
    Two-Electron Energy =                 289.0233273435197816
    Total Energy =                       -246.7952488676546636

Computation Completed


Properties will be evaluated at   0.000000,   0.000000,   0.000000 [a0]

Properties computed using the SCF density matrix


 Multipole Moments:

 ------------------------------------------------------------------------------------
     Multipole            Electronic (a.u.)      Nuclear  (a.u.)        Total (a.u.)
 ------------------------------------------------------------------------------------

 L = 1.  Multiply by 2.5417464519 to convert [e a0] to [Debye]
 Dipole X            :          0.0000000           -0.0000000            0.0000000
 Dipole Y            :          0.0000000           -0.0000000            0.0000000
 Dipole Z            :        104.0443175         -104.9316509           -0.8873334
 Magnitude           :                                                    0.8873334

 ------------------------------------------------------------------------------------

*** tstop() called on cmpsrv002 at Thu Sep 19 15:10:03 2024
Module time:
	user time   =      81.66 seconds =       1.36 minutes
	system time =       4.18 seconds =       0.07 minutes
	total time  =        926 seconds =      15.43 minutes
Total time:
	user time   =     174.14 seconds =       2.90 minutes
	system time =      21.48 seconds =       0.36 minutes
	total time  =       3240 seconds =      54.00 minutes

         ---------------------------------------------------------
                        SAPT(DFT): delta HF Segment                

                   by Daniel G. A. Smith and Rob Parrish           
         ---------------------------------------------------------


  ==> Preparing SAPT Data Cache <== 

  ==> DiskDFJK: Density-Fitted J/K Matrices <==

    J tasked:                  Yes
    K tasked:                  Yes
    wK tasked:                  No
    OpenMP threads:              4
    Integrals threads:           4
    Memory [MiB]:             5722
    Algorithm:                Core
    Integral Cache:           SAVE
    Schwarz Cutoff:          1E-12
    Fitting Condition:       1E-10

   => Auxiliary Basis Set <=

  Basis Set: (THIS_BASIS AUX)
    Blend: DEF2-UNIVERSAL-JKFIT
    Number of shells: 224
    Number of basis functions: 688
    Number of Cartesian functions: 813
    Spherical Harmonics?: true
    Max angular momentum: 4


  ==> E10 Electostatics <== 

    Elst10,r                        -58.05657729 [mEh]

  ==> E10 Exchange <== 

    Exch10(S^2)                      92.96857656 [mEh]
    Exch10                           99.25668198 [mEh]

  ==> E20 Induction <== 

   => Uncoupled Induction <= 

    Ind20,u (A<-B)                  -18.46633310 [mEh]
    Ind20,u (A->B)                  -27.80627117 [mEh]
    Ind20,u                         -46.27260427 [mEh]
    Exch-Ind20,u (A<-B)              13.92031163 [mEh]
    Exch-Ind20,u (A->B)              10.91794869 [mEh]
    Exch-Ind20,u                     24.83826033 [mEh]
    Exch-Ind20,u (A<-B) (S^inf)      16.08707457 [mEh]
    Exch-Ind20,u (A->B) (S^inf)      13.10115816 [mEh]
    Exch-Ind20,u (S^inf)             29.18823273 [mEh]

   => Coupled Induction <= 

   ---------------------------------------------------
              SAPT Coupled Induction Solver           
   ---------------------------------------------------
    Maxiter             =          20
    Convergence         =   1.000E-06
   ---------------------------------------------------
     Iter       (A<-B)           (B->A)      Time [s]
   ---------------------------------------------------
    Guess    1.185788e-01     1.797518e-01          5
        1    3.892989e-02     9.250827e-02         10
        2    5.948031e-03     2.288625e-02         17
        3    1.621791e-03     1.037490e-02         25
        4    5.476377e-04     4.524213e-03         38
        5    1.080161e-04     2.024217e-03         44
        6    2.713600e-05     6.233335e-04         50
        7    5.174616e-06     2.108929e-04         53
        8    5.506609e-07*    4.373942e-05         61
        9    5.506609e-07*    1.134766e-05         65
       10    5.506609e-07*    3.554340e-06         69
       11    5.506609e-07*    1.022930e-06         72
       12    5.506609e-07*    2.093898e-07*        75
   ---------------------------------------------------

    Ind20,r (A<-B)                  -21.86880863 [mEh]
    Ind20,r (A->B)                  -35.32035294 [mEh]
    Ind20,r                         -57.18916157 [mEh]
    Exch-Ind20,r (A<-B)              17.07967424 [mEh]
    Exch-Ind20,r (A->B)              15.71049400 [mEh]
    Exch-Ind20,r                     32.79016824 [mEh]
    Exch-Ind20,r (A<-B) (S^inf)      19.82033970 [mEh]
    Exch-Ind20,r (A->B) (S^inf)      18.96044040 [mEh]
    Exch-Ind20,r (S^inf)             38.78078010 [mEh]

   Partial SAPT(HF) Results, to compute Delta HF (dHF)
  ---------------------------------------------------------------------------------------------------------
    Electrostatics                  -58.05657729 [mEh]    -36.43105226 [kcal/mol]   -152.42752267 [kJ/mol]
      Elst10,r                      -58.05657729 [mEh]    -36.43105226 [kcal/mol]   -152.42752267 [kJ/mol]

    Exchange                         99.25668198 [mEh]     62.28450828 [kcal/mol]    260.59838263 [kJ/mol]
      Exch10                         99.25668198 [mEh]     62.28450828 [kcal/mol]    260.59838263 [kJ/mol]
      Exch10(S^2)                    92.96857656 [mEh]     58.33866255 [kcal/mol]    244.08896413 [kJ/mol]

    Induction (no dHF)              -24.39899333 [mEh]    -15.31059946 [kcal/mol]    -64.05954816 [kJ/mol]
      Ind20,r                       -57.18916157 [mEh]    -35.88674068 [kcal/mol]   -150.15012302 [kJ/mol]
      Exch-Ind20,r                   32.79016824 [mEh]     20.57614122 [kcal/mol]     86.09057486 [kJ/mol]
      Induction (A<-B) (no dHF)      -4.78913439 [mEh]     -3.00522720 [kcal/mol]    -12.57387060 [kJ/mol]
      Induction (A->B) (no dHF)     -19.60985894 [mEh]    -12.30537227 [kcal/mol]    -51.48567756 [kJ/mol]

    Subtotal SAPT(HF)                16.80111136 [mEh]     10.54285655 [kcal/mol]     44.11131181 [kJ/mol]
    Total HF                         -7.18078638 [mEh]     -4.50601148 [kcal/mol]    -18.85315204 [kJ/mol]
    Delta HF                        -23.98189774 [mEh]    -15.04886803 [kcal/mol]    -62.96446385 [kJ/mol]
  ---------------------------------------------------------------------------------------------------------
   Partial SAPT(HF) Results, alternate SAPT0-like display
  ---------------------------------------------------------------------------------------------------------
    Induction                       -48.38089107 [mEh]    -30.35946750 [kcal/mol]   -127.02401201 [kJ/mol]
      Ind20,r                       -57.18916157 [mEh]    -35.88674068 [kcal/mol]   -150.15012302 [kJ/mol]
      Exch-Ind20,r                   32.79016824 [mEh]     20.57614122 [kcal/mol]     86.09057486 [kJ/mol]
      delta HF,r (2)                -23.98189774 [mEh]    -15.04886803 [kcal/mol]    -62.96446385 [kJ/mol]
      Induction (A<-B)               -9.49639954 [mEh]     -5.95908068 [kcal/mol]    -24.93279356 [kJ/mol]
      Induction (A->B)              -38.88449153 [mEh]    -24.40038682 [kcal/mol]   -102.09121845 [kJ/mol]
  ---------------------------------------------------------------------------------------------------------
   => Libint2 <=

    Primary   basis highest AM E, G, H:  6, 6, 3
    Auxiliary basis highest AM E, G, H:  7, 7, 4
    Onebody   basis highest AM E, G, H:  -, -, -
    Solid Harmonics ordering:            Gaussian

*** tstart() called on cmpsrv002
*** at Thu Sep 19 15:11:55 2024

   => Loading Basis Set <=

    Name: THIS_BASIS
    Role: ORBITAL
    Keyword: BASIS
    atoms 1, 3-4, 11-13 entry H          line    15 file /home/vance/anaconda3/envs/p4env/share/psi4/basis/def2-qzvp.gbs 
    atoms 2             entry CL         line   809 file /home/vance/anaconda3/envs/p4env/share/psi4/basis/def2-qzvp.gbs 
    atoms 5-7, 9-10     entry C          line   194 file /home/vance/anaconda3/envs/p4env/share/psi4/basis/def2-qzvp.gbs 
    atoms 8             entry N          line   242 file /home/vance/anaconda3/envs/p4env/share/psi4/basis/def2-qzvp.gbs 


         ---------------------------------------------------------
                          SAPT(DFT): DFT Monomer A                 
         ---------------------------------------------------------
                                   SCF
               by Justin Turney, Rob Parrish, Andy Simmonett
                          and Daniel G. A. Smith
                              RKS Reference
                        4 Threads,   7629 MiB Core
         ---------------------------------------------------------

  ==> Geometry <==

    Molecular point group: c1
    Full point group: C2v

    Geometry (in Angstrom), charge = 0, multiplicity = 1:

       Center              X                  Y                   Z               Mass       
    ------------   -----------------  -----------------  -----------------  -----------------
         H           -0.000000000000     0.000000000000     1.515554325542     1.007825032230
         CL          -0.000000000000     0.000000000000     2.883014325542    34.968852682000
      Gh(H)           0.000000000000    -2.147710000000    -2.498585674458     1.007825032230
      Gh(H)           0.000000000000    -2.051420000000    -0.005055674458     1.007825032230
      Gh(C)          -0.000000000000     0.000000000000    -2.692385674458    12.000000000000
      Gh(C)           0.000000000000    -1.196400000000    -1.988275674458    12.000000000000
      Gh(C)           0.000000000000    -1.149310000000    -0.602345674458    12.000000000000
      Gh(N)          -0.000000000000     0.000000000000     0.070654325542    14.003074004430
      Gh(C)          -0.000000000000     1.149310000000    -0.602345674458    12.000000000000
      Gh(C)          -0.000000000000     1.196400000000    -1.988275674458    12.000000000000
      Gh(H)          -0.000000000000     2.051420000000    -0.005055674458     1.007825032230
      Gh(H)          -0.000000000000     2.147710000000    -2.498585674458     1.007825032230
      Gh(H)          -0.000000000000     0.000000000000    -3.772965674458     1.007825032230

  Running in c1 symmetry.

  Rotational constants: A =      0.20108  B =      0.03302  C =      0.02836 [cm^-1]
  Rotational constants: A =   6028.26605  B =    989.88934  C =    850.26848 [MHz]
  Nuclear repulsion =    6.578629416136491

  Charge       = 0
  Multiplicity = 1
  Electrons    = 18
  Nalpha       = 9
  Nbeta        = 9

  ==> Algorithm <==

  SCF Algorithm Type is DF.
  DIIS enabled.
  MOM disabled.
  Fractional occupation disabled.
  Guess Type is SAD.
  Energy threshold   = 1.00e-08
  Density threshold  = 1.00e-08
  Integral threshold = 1.00e-12

  ==> Primary Basis <==

  Basis Set: THIS_BASIS
    Blend: DEF2-QZVP
    Number of shells: 184
    Number of basis functions: 592
    Number of Cartesian functions: 728
    Spherical Harmonics?: true
    Max angular momentum: 4

  ==> DFT Potential <==

   => LibXC <=

[...]
     187A      2.099529   188A      2.117796   189A      2.122418  
     190A      2.151835   191A      2.163806   192A      2.165860  
     193A      2.178356   194A      2.190512   195A      2.206383  
     196A      2.232284   197A      2.234515   198A      2.267395  
     199A      2.271928   200A      2.295282   201A      2.302238  
     202A      2.309539   203A      2.313664   204A      2.350396  
     205A      2.351140   206A      2.353507   207A      2.357763  
     208A      2.371162   209A      2.392991   210A      2.393113  
     211A      2.400816   212A      2.443387   213A      2.454928  
     214A      2.460682   215A      2.467127   216A      2.472012  
     217A      2.473524   218A      2.476583   219A      2.499405  
     220A      2.527015   221A      2.536940   222A      2.539023  
     223A      2.548306   224A      2.566021   225A      2.581630  
     226A      2.589316   227A      2.598987   228A      2.606978  
     229A      2.621954   230A      2.628022   231A      2.649063  
     232A      2.670891   233A      2.712740   234A      2.731617  
     235A      2.735568   236A      2.753103   237A      2.754438  
     238A      2.780873   239A      2.784999   240A      2.821971  
     241A      2.862453   242A      2.903010   243A      2.903739  
     244A      2.919965   245A      2.960426   246A      2.972828  
     247A      2.975304   248A      2.982986   249A      3.033944  
     250A      3.046382   251A      3.048082   252A      3.132452  
     253A      3.150557   254A      3.153911   255A      3.229672  
     256A      3.235483   257A      3.241803   258A      3.253409  
     259A      3.277082   260A      3.294957   261A      3.295003  
     262A      3.306905   263A      3.312849   264A      3.337417  
     265A      3.341787   266A      3.374735   267A      3.400311  
     268A      3.444301   269A      3.459791   270A      3.466296  
     271A      3.474156   272A      3.498078   273A      3.506639  
     274A      3.565952   275A      3.584499   276A      3.597959  
     277A      3.605285   278A      3.654500   279A      3.661112  
     280A      3.741818   281A      3.809532   282A      3.813907  
     283A      3.823318   284A      3.837613   285A      3.874275  
     286A      3.924240   287A      3.952725   288A      3.967205  
     289A      3.968242   290A      3.992031   291A      4.084029  
     292A      4.102712   293A      4.116366   294A      4.126615  
     295A      4.167524   296A      4.169247   297A      4.276841  
     298A      4.373228   299A      4.420579   300A      4.431822  
     301A      4.432246   302A      4.448830   303A      4.448939  
     304A      4.464359   305A      4.523819   306A      4.568134  
     307A      4.598432   308A      4.602231   309A      4.613645  
     310A      4.688268   311A      4.709655   312A      4.755598  
     313A      4.762146   314A      4.772910   315A      4.817287  
     316A      4.844868   317A      4.852366   318A      4.975921  
     319A      4.982613   320A      4.987908   321A      4.997978  
     322A      5.026044   323A      5.066317   324A      5.130633  
     325A      5.164273   326A      5.179188   327A      5.195922  
     328A      5.201822   329A      5.258560   330A      5.265017  
     331A      5.265291   332A      5.312051   333A      5.314554  
     334A      5.345846   335A      5.350260   336A      5.372192  
     337A      5.380651   338A      5.425192   339A      5.447320  
     340A      5.454967   341A      5.455937   342A      5.475453  
     343A      5.517234   344A      5.539693   345A      5.562106  
     346A      5.576586   347A      5.580577   348A      5.597165  
     349A      5.637830   350A      5.668123   351A      5.690764  
     352A      5.708532   353A      5.713905   354A      5.716839  
     355A      5.729755   356A      5.735225   357A      5.744286  
     358A      5.755453   359A      5.763233   360A      5.785788  
     361A      5.792457   362A      5.819099   363A      5.832221  
     364A      5.878576   365A      5.890750   366A      5.913844  
     367A      5.937201   368A      5.941371   369A      5.947749  
     370A      5.951621   371A      5.988925   372A      5.993572  
     373A      5.996284   374A      6.019899   375A      6.022685  
     376A      6.037961   377A      6.067512   378A      6.080905  
     379A      6.085701   380A      6.094006   381A      6.118512  
     382A      6.119804   383A      6.122826   384A      6.128255  
     385A      6.187277   386A      6.187939   387A      6.202251  
     388A      6.203121   389A      6.213180   390A      6.220613  
     391A      6.224901   392A      6.232723   393A      6.242402  
     394A      6.258341   395A      6.268249   396A      6.276399  
     397A      6.298246   398A      6.303421   399A      6.335162  
     400A      6.352868   401A      6.387604   402A      6.406153  
     403A      6.413419   404A      6.416891   405A      6.471476  
     406A      6.480280   407A      6.482445   408A      6.501189  
     409A      6.532024   410A      6.568140   411A      6.578667  
     412A      6.588197   413A      6.597179   414A      6.621852  
     415A      6.626585   416A      6.640244   417A      6.647569  
     418A      6.654264   419A      6.696158   420A      6.709940  
     421A      6.728848   422A      6.738120   423A      6.828991  
     424A      6.837702   425A      6.903446   426A      6.910637  
     427A      6.912410   428A      6.949218   429A      6.961297  
     430A      6.994284   431A      7.011866   432A      7.013778  
     433A      7.057944   434A      7.092677   435A      7.102979  
     436A      7.109781   437A      7.116255   438A      7.164479  
     439A      7.277287   440A      7.328115   441A      7.360758  
     442A      7.367039   443A      7.376134   444A      7.380702  
     445A      7.420096   446A      7.443615   447A      7.453150  
     448A      7.472934   449A      7.494511   450A      7.544530  
     451A      7.546237   452A      7.571070   453A      7.600593  
     454A      7.627553   455A      7.649425   456A      7.656141  
     457A      7.695355   458A      7.704906   459A      7.743081  
     460A      7.749115   461A      7.794842   462A      7.803914  
     463A      7.859674   464A      7.867202   465A      7.911576  
     466A      7.920277   467A      7.925973   468A      7.932347  
     469A      7.960004   470A      7.973428   471A      7.985644  
     472A      8.042537   473A      8.058239   474A      8.059351  
     475A      8.065460   476A      8.087222   477A      8.109460  
     478A      8.163940   479A      8.190824   480A      8.200676  
     481A      8.261782   482A      8.264317   483A      8.270049  
     484A      8.281914   485A      8.290806   486A      8.315450  
     487A      8.333302   488A      8.335535   489A      8.346867  
     490A      8.359937   491A      8.384455   492A      8.405933  
     493A      8.412526   494A      8.416980   495A      8.444265  
     496A      8.475028   497A      8.489906   498A      8.522240  
     499A      8.555398   500A      8.562760   501A      8.641628  
     502A      8.681131   503A      8.682436   504A      8.718429  
     505A      8.750758   506A      8.762724   507A      8.768761  
     508A      8.872162   509A      8.876331   510A      8.896443  
     511A      8.911469   512A      9.051739   513A      9.083782  
     514A      9.121840   515A      9.174352   516A      9.256224  
     517A      9.257098   518A      9.331963   519A      9.333542  
     520A      9.377262   521A      9.428860   522A      9.473445  
     523A      9.518674   524A      9.590958   525A      9.594911  
     526A      9.615179   527A      9.665287   528A      9.681265  
     529A      9.699842   530A      9.723293   531A      9.744945  
     532A      9.780171   533A      9.842658   534A      9.851446  
     535A      9.866209   536A      9.971184   537A     10.005086  
     538A     10.060212   539A     10.064997   540A     10.098650  
     541A     10.114634   542A     10.148111   543A     10.203093  
     544A     10.281074   545A     10.359445   546A     10.396301  
     547A     10.510576   548A     10.625790   549A     10.636262  
     550A     10.696007   551A     10.812900   552A     10.988216  
     553A     11.001718   554A     11.357512   555A     11.757158  
     556A     11.963625   557A     12.009423   558A     12.045434  
     559A     12.294732   560A     12.565247   561A     12.650590  
     562A     12.782974   563A     12.905309   564A     13.168626  
     565A     15.460251   566A     21.602743   567A     21.618960  
     568A     21.627224   569A     21.627762   570A     21.759100  
     571A     21.796029   572A     21.894413   573A     22.576521  
     574A     28.033901   575A     28.533868   576A     28.711760  
     577A     29.052751   578A     29.250479   579A     35.764122  
     580A     37.835076   581A     85.605787   582A    118.071717  
     583A    118.072352   584A    118.115746   585A    147.248811  
     586A    147.733180   587A    147.889021   588A    148.231284  
     589A    148.446225   590A    197.349913   591A    234.104237  
     592A   1052.114606  

    Final Occupation by Irrep:
              A 
    DOCC [    21 ]
    NA   [    21 ]
    NB   [    21 ]

  @DF-RKS Final Energy:  -248.09020548578826

   => Energetics <=

    Nuclear Repulsion Energy =            206.9830748982441264
    One-Electron Energy =                -743.5469947513101943
    Two-Electron Energy =                 315.5183987754375039
    DFT Exchange-Correlation Energy =     -27.0446844081597035
    Empirical Dispersion Energy =           0.0000000000000000
    VV10 Nonlocal Energy =                  0.0000000000000000
    Total Energy =                       -248.0902054857882604

Computation Completed


Properties will be evaluated at   0.000000,   0.000000,   0.000000 [a0]

Properties computed using the SCF density matrix


 Multipole Moments:

 ------------------------------------------------------------------------------------
     Multipole            Electronic (a.u.)      Nuclear  (a.u.)        Total (a.u.)
 ------------------------------------------------------------------------------------

 L = 1.  Multiply by 2.5417464519 to convert [e a0] to [Debye]
 Dipole X            :          0.0000000           -0.0000000            0.0000000
 Dipole Y            :          0.0000000           -0.0000000            0.0000000
 Dipole Z            :        104.0647661         -104.9316509           -0.8668848
 Magnitude           :                                                    0.8668848

 ------------------------------------------------------------------------------------

*** tstop() called on cmpsrv002 at Thu Sep 19 15:26:02 2024
Module time:
	user time   =     407.71 seconds =       6.80 minutes
	system time =       8.38 seconds =       0.14 minutes
	total time  =        398 seconds =       6.63 minutes
Total time:
	user time   =    1001.17 seconds =      16.69 minutes
	system time =      39.38 seconds =       0.66 minutes
	total time  =       4199 seconds =      69.98 minutes

         ---------------------------------------------------------
               SAPT(DFT): Intermolecular Interaction Segment       

                   by Daniel G. A. Smith and Rob Parrish           
         ---------------------------------------------------------

  ==> Algorithm <==

   SAPT DFT Functional             PBE0
   Monomer A GRAC Shift        0.116251
   Monomer B GRAC Shift        0.074627
   Delta HF                        True
   JK Algorithm                      DF

  ==> Preparing SAPT Data Cache <== 

  ==> DiskDFJK: Density-Fitted J/K Matrices <==

    J tasked:                  Yes
    K tasked:                  Yes
    wK tasked:                  No
    OpenMP threads:              4
    Integrals threads:           4
    Memory [MiB]:             2702
    Algorithm:                Core
    Integral Cache:           SAVE
    Schwarz Cutoff:          1E-12
    Fitting Condition:       1E-10

   => Auxiliary Basis Set <=

  Basis Set: (THIS_BASIS AUX)
    Blend: DEF2-UNIVERSAL-JKFIT
    Number of shells: 224
    Number of basis functions: 688
    Number of Cartesian functions: 813
    Spherical Harmonics?: true
    Max angular momentum: 4


  ==> E10 Electostatics <== 

    Elst10,r                        -55.96118912 [mEh]

  ==> E10 Exchange <== 

    Exch10(S^2)                      94.24773761 [mEh]
    Exch10                          100.65701757 [mEh]

  ==> E20 Induction <== 

   => Uncoupled Induction <= 

    Ind20,u (A<-B)                  -22.56335826 [mEh]
    Ind20,u (A->B)                  -38.30378472 [mEh]
    Ind20,u                         -60.86714298 [mEh]
    Exch-Ind20,u (A<-B)              17.62782944 [mEh]
    Exch-Ind20,u (A->B)              17.10457248 [mEh]
    Exch-Ind20,u                     34.73240193 [mEh]
    Exch-Ind20,u (A<-B) (S^inf)      20.41745742 [mEh]
    Exch-Ind20,u (A->B) (S^inf)      20.32449951 [mEh]
    Exch-Ind20,u (S^inf)             40.74195693 [mEh]

   => Coupled Induction <= 

   ---------------------------------------------------
              SAPT Coupled Induction Solver           
   ---------------------------------------------------
    Maxiter             =          20
    Convergence         =   1.000E-06
   ---------------------------------------------------
     Iter       (A<-B)           (B->A)      Time [s]
   ---------------------------------------------------
    Guess    1.168466e-01     2.261161e-01         41
        1    3.024931e-02     7.631277e-02         80
        2    8.214617e-03     2.488980e-02        120
        3    1.886107e-03     8.637938e-03        162
        4    1.721673e-04     1.693663e-03        210
        5    2.168048e-05     5.440638e-04        278
        6    3.368924e-06     1.009016e-04        353
        7    3.164591e-07*    2.493057e-05        422
        8    3.164591e-07*    8.366443e-06        451
        9    3.164591e-07*    1.679740e-06        486
       10    3.164591e-07*    3.593031e-07*       521
   ---------------------------------------------------

    Ind20,r (A<-B)                  -23.61314960 [mEh]
    Ind20,r (A->B)                  -39.99439884 [mEh]
    Ind20,r                         -63.60754845 [mEh]
    Exch-Ind20,r (A<-B)              18.88591199 [mEh]
    Exch-Ind20,r (A->B)              20.19276311 [mEh]
    Exch-Ind20,r                     39.07867510 [mEh]
    Exch-Ind20,r (A<-B) (S^inf)      21.89630001 [mEh]
    Exch-Ind20,r (A->B) (S^inf)      23.97668362 [mEh]
    Exch-Ind20,r (S^inf)             45.87298363 [mEh]
   => Loading Basis Set <=

    Name: (THIS_BASIS AUX)
    Role: RIFIT
    Keyword: DF_BASIS_MP2
    atoms 1, 3-4, 11-13 entry H          line    23 file /home/vance/anaconda3/envs/p4env/share/psi4/basis/def2-qzvp-ri.gbs 
    atoms 2             entry CL         line  1113 file /home/vance/anaconda3/envs/p4env/share/psi4/basis/def2-qzvp-ri.gbs 
    atoms 5-7, 9-10     entry C          line   269 file /home/vance/anaconda3/envs/p4env/share/psi4/basis/def2-qzvp-ri.gbs 
    atoms 8             entry N          line   337 file /home/vance/anaconda3/envs/p4env/share/psi4/basis/def2-qzvp-ri.gbs 



  ==> E20 Dispersion (CHF FDDS) <== 

   Legendre Points:          10
   Lambda Shift:          0.300
   Fxc Kernal:             ALDA
   (P|Fxc|Q) Thresh:  1.000e-06
  DFHelper Memory: AOs need 3.164 GiB; user supplied 5.960 GiB. 
  Using in-core AOs.

  ==> DFHelper <==
    NBF:                             592
    NAux:                           1349
    Schwarz Cutoff:                1E-12
    Mask sparsity (%):                13
    DFH Avail. Memory [GiB]:       5.960
    OpenMP threads:                    4
    Algorithm:                    DIRECT
    AO Core:                        True
    MO Core:                       False
    Hold Metric:                   False
    Metric Power:                  0.000
    Fitting Condition:             1E-12
    Q Shell Max:                      11


  DFHelper Memory: AOs need 3.633 GiB; user supplied 5.960 GiB. 
  Using in-core AOs.


   => Time Integration <= 

       Omega       Weight       Disp20,u         Disp20   time [s]
   2.269e+01    6.667e-02      6.269e-04      5.900e-04          5
   4.147e+00    1.495e-01      9.507e-03      8.619e-03          9
   1.572e+00    2.191e-01      2.594e-02      2.157e-02         12
   7.589e-01    2.693e-01      4.073e-02      2.975e-02         16
   4.049e-01    2.955e-01      4.461e-02      2.852e-02         20
   2.223e-01    2.955e-01      3.767e-02      2.183e-02         24
   1.186e-01    2.693e-01      2.682e-02      1.471e-02         28
   5.727e-02    2.191e-01      1.709e-02      9.169e-03         32
   2.170e-02    1.495e-01      9.646e-03      5.142e-03         36
   3.966e-03    6.667e-02      3.855e-03      2.053e-03         40

    Disp20,u                        -34.45580141 [mEh]
    Disp20                          -22.59254025 [mEh]

  ==> E20 Dispersion (MP2) <== 


    Disp20 (MP2)                    -34.32055049 [mEh]
    Exch-Disp20,u                     7.01150845 [mEh]
    Scaling Scheme                    FIXED
    Scaling Factor                    0.770
    Est. Exch-Disp20,r                5.39886150 [mEh]

   SAPT(DFT) Results
  ---------------------------------------------------------------------------------------------------------
    Electrostatics                  -55.96118912 [mEh]    -35.11617634 [kcal/mol]   -146.92608180 [kJ/mol]
      Elst1,r                       -55.96118912 [mEh]    -35.11617634 [kcal/mol]   -146.92608180 [kJ/mol]

    Exchange                        100.65701757 [mEh]     63.16323213 [kcal/mol]    264.27496323 [kJ/mol]
      Exch1                         100.65701757 [mEh]     63.16323213 [kcal/mol]    264.27496323 [kJ/mol]
      Exch1(S^2)                     94.24773761 [mEh]     59.14134823 [kcal/mol]    247.44740101 [kJ/mol]

    Induction                       -48.51077109 [mEh]    -30.44096844 [kcal/mol]   -127.36501195 [kJ/mol]
      Ind2,r                        -63.60754845 [mEh]    -39.91433925 [kcal/mol]   -167.00159544 [kJ/mol]
      Exch-Ind2,r                    39.07867510 [mEh]     24.52223885 [kcal/mol]    102.60104735 [kJ/mol]
      Induction (A<-B)               -4.72723761 [mEh]     -2.96638639 [kcal/mol]    -12.41136065 [kJ/mol]
      Induction (A->B)              -19.80163573 [mEh]    -12.42571402 [kcal/mol]    -51.98918745 [kJ/mol]
      delta HF,r (2)                -23.98189774 [mEh]    -15.04886803 [kcal/mol]    -62.96446385 [kJ/mol]

    Dispersion                      -17.19367875 [mEh]    -10.78919630 [kcal/mol]    -45.14199734 [kJ/mol]
      Disp2,r                       -22.59254025 [mEh]    -14.17703305 [kcal/mol]    -59.31670626 [kJ/mol]
      Disp2,u                       -34.32055049 [mEh]    -21.53647058 [kcal/mol]    -90.10859290 [kJ/mol]
      Est. Exch-Disp2,r               5.39886150 [mEh]      3.38783674 [kcal/mol]     14.17470893 [kJ/mol]
      Exch-Disp2,u                    7.01150845 [mEh]      4.39978798 [kcal/mol]     18.40871289 [kJ/mol]

    Total SAPT(DFT)                 -21.00862139 [mEh]    -13.18310895 [kcal/mol]    -55.15812785 [kJ/mol]
  ---------------------------------------------------------------------------------------------------------

*** tstop() called on cmpsrv002 at Thu Sep 19 16:40:41 2024
Module time:
	user time   =    2852.61 seconds =      47.54 minutes
	system time =      76.92 seconds =       1.28 minutes
	total time  =       4877 seconds =      81.28 minutes
Total time:
	user time   =    3446.07 seconds =      57.43 minutes
	system time =     107.92 seconds =       1.80 minutes
	total time  =       8678 seconds =     144.63 minutes

    Psi4 stopped on: Thursday, 19 September 2024 04:40PM
    Psi4 wall time for execution: 2:24:39.05

*** Psi4 exiting successfully. Buy a developer a beer!
