
    -----------------------------------------------------------------------
          Psi4: An Open-Source Ab Initio Electronic Structure Package
                               Psi4 1.9.1 release

                         Git: Rev {} zzzzzzz 


    D. G. A. Smith, L. A. Burns, A. C. Simmonett, R. M. Parrish,
    M. C. Schieber, R. Galvelis, P. Kraus, H. Kruse, R. Di Remigio,
    A. Alenaizan, A. M. James, S. Lehtola, J. P. Misiewicz, M. Scheurer,
    R. A. Shaw, J. B. Schriber, Y. Xie, Z. L. Glick, D. A. Sirianni,
    J. S. O'Brien, J. M. Waldrop, A. Kumar, E. G. Hohenstein,
    B. P. Pritchard, B. R. Brooks, H. F. Schaefer III, A. Yu. Sokolov,
    K. Patkowski, A. E. DePrince III, U. Bozkaya, R. A. King,
    F. A. Evangelista, J. M. Turney, T. D. Crawford, C. D. Sherrill,
    J. Chem. Phys. 152(18) 184108 (2020). https://doi.org/10.1063/5.0006002

                            Additional Code Authors
    E. T. Seidl, C. L. Janssen, E. F. Valeev, M. L. Leininger,
    J. F. Gonthier, R. M. Richard, H. R. McAlexander, M. Saitow, X. Wang,
    P. Verma, M. H. Lechner, A. Jiang, S. Behnle, A. G. Heide,
    M. F. Herbst, and D. L. Poole

             Previous Authors, Complete List of Code Contributors,
                       and Citations for Specific Modules
    https://github.com/psi4/psi4/blob/master/codemeta.json
    https://github.com/psi4/psi4/graphs/contributors
    http://psicode.org/psi4manual/master/introduction.html#citing-psifour

    -----------------------------------------------------------------------


    Psi4 started on: Thursday, 19 September 2024 02:16PM

    Process ID: 605860
    Host:       cmpsrv002
    PSIDATADIR: /home/vance/anaconda3/envs/p4env/share/psi4
    Memory:     500.0 MiB
    Threads:    8
    
  ==> Input File <==

--------------------------------------------------------------------------
#charge=0 charge_a=0 charge_b=0 selection_a=1-2 selection_b=3-13 scaling=0.8 benchmark_Eint=-6.695 benchmark_unit=kcal/mol group=XH-N
set_num_threads(4)
memory 8 GB
basis this_basis {
    assign    def2-qzvp
}

molecule {
     0 1
    --
     0 1
     H        0.00000        0.00000        1.62588
    Cl        0.00000        0.00000        2.99334
    --
     0 1
     H        0.00000       -2.14771       -2.22772
     H        0.00000       -2.05142        0.26581
     C        0.00000        0.00000       -2.42152
     C        0.00000       -1.19640       -1.71740
     C        0.00000       -1.14931       -0.33147
     N        0.00000        0.00000        0.34153
     C       -0.00000        1.14931       -0.33147
     C       -0.00000        1.19640       -1.71740
     H       -0.00000        2.05142        0.26581
     H       -0.00000        2.14771       -2.22772
     H        0.00000        0.00000       -3.50210
}

set {
    sapt_dft_functional     PBE0
    scf_type                DF
    freeze_core             true
    sapt_dft_grac_shift_a    0.116251
    sapt_dft_grac_shift_b    0.074627
    sapt_dft_do_hybrid      true
    do_ind_exch_sinf        true
    do_disp_exch_sinf       true
}

nrg = energy('sapt(DFT)')
--------------------------------------------------------------------------
  Threads set to 4 by Python driver.

  Memory set to   7.451 GiB by Python driver.

Scratch directory: /scratch2/vance/psi4/

*** tstart() called on cmpsrv002
*** at Thu Sep 19 14:16:08 2024

  SAPT does not make use of molecular symmetry, further calculations in C1 point group.

         ---------------------------------------------------------
                            SAPT(DFT) Procedure                    

                           by Daniel G. A. Smith                   
         ---------------------------------------------------------

Warning! The default value of SAPT_DFT_EXCH_DISP_SCALE_SCHEME has changed from DISP to FIXED. Please be careful comparing results with earlier versions. 

  ==> Algorithm <==

   SAPT DFT Functional             PBE0
   Monomer A GRAC Shift        0.116251
   Monomer B GRAC Shift        0.074627
   Delta HF                        True
   JK Algorithm                      DF

   Required computations:
     HF  (Dimer)
     HF  (Monomer A)
     HF  (Monomer B)
     DFT (Monomer A)
     DFT (Monomer B)

   => Libint2 <=

    Primary   basis highest AM E, G, H:  6, 6, 3
    Auxiliary basis highest AM E, G, H:  7, 7, 4
    Onebody   basis highest AM E, G, H:  -, -, -
    Solid Harmonics ordering:            Gaussian

*** tstart() called on cmpsrv002
*** at Thu Sep 19 14:16:08 2024

   => Loading Basis Set <=

    Name: THIS_BASIS
    Role: ORBITAL
    Keyword: BASIS
    atoms 1, 3-4, 11-13 entry H          line    15 file /home/vance/anaconda3/envs/p4env/share/psi4/basis/def2-qzvp.gbs 
    atoms 2             entry CL         line   809 file /home/vance/anaconda3/envs/p4env/share/psi4/basis/def2-qzvp.gbs 
    atoms 5-7, 9-10     entry C          line   194 file /home/vance/anaconda3/envs/p4env/share/psi4/basis/def2-qzvp.gbs 
    atoms 8             entry N          line   242 file /home/vance/anaconda3/envs/p4env/share/psi4/basis/def2-qzvp.gbs 


         ---------------------------------------------------------
                         SAPT(DFT): delta HF Dimer                 
         ---------------------------------------------------------
                                   SCF
               by Justin Turney, Rob Parrish, Andy Simmonett
                          and Daniel G. A. Smith
                              RHF Reference
                        4 Threads,   7629 MiB Core
         ---------------------------------------------------------

  ==> Geometry <==

    Molecular point group: c1
    Full point group: C2v

    Geometry (in Angstrom), charge = 0, multiplicity = 1:

       Center              X                  Y                   Z               Mass       
    ------------   -----------------  -----------------  -----------------  -----------------
         H            0.000000000000     0.000000000000     1.405224134281     1.007825032230
         CL           0.000000000000     0.000000000000     2.772684134281    34.968852682000
         H            0.000000000000    -2.147710000000    -2.448375865719     1.007825032230
         H            0.000000000000    -2.051420000000     0.045154134281     1.007825032230
         C            0.000000000000     0.000000000000    -2.642175865719    12.000000000000
         C            0.000000000000    -1.196400000000    -1.938055865719    12.000000000000
         C            0.000000000000    -1.149310000000    -0.552125865719    12.000000000000
         N            0.000000000000     0.000000000000     0.120874134281    14.003074004430
         C           -0.000000000000     1.149310000000    -0.552125865719    12.000000000000
         C           -0.000000000000     1.196400000000    -1.938055865719    12.000000000000
         H           -0.000000000000     2.051420000000     0.045154134281     1.007825032230
         H           -0.000000000000     2.147710000000    -2.448375865719     1.007825032230
         H            0.000000000000     0.000000000000    -3.722755865719     1.007825032230

  Running in c1 symmetry.

  Rotational constants: A =      0.20108  B =      0.03524  C =      0.02999 [cm^-1]
  Rotational constants: A =   6028.26605  B =   1056.57839  C =    899.00853 [MHz]
  Nuclear repulsion =  319.045816091925644

  Charge       = 0
  Multiplicity = 1
  Electrons    = 60
  Nalpha       = 30
  Nbeta        = 30

  ==> Algorithm <==

  SCF Algorithm Type is DF.
  DIIS enabled.
  MOM disabled.
  Fractional occupation disabled.
  Guess Type is SAD.
  Energy threshold   = 1.00e-08
  Density threshold  = 1.00e-08
  Integral threshold = 1.00e-12

  ==> Primary Basis <==

  Basis Set: THIS_BASIS
    Blend: DEF2-QZVP
    Number of shells: 184
    Number of basis functions: 592
    Number of Cartesian functions: 728
    Spherical Harmonics?: true
    Max angular momentum: 4

   => Loading Basis Set <=

    Name: (THIS_BASIS AUX)
    Role: JKFIT
    Keyword: DF_BASIS_SCF
    atoms 1, 3-4, 11-13 entry H          line    18 file /home/vance/anaconda3/envs/p4env/share/psi4/basis/def2-universal-jkfit.gbs 
    atoms 2             entry CL         line   986 file /home/vance/anaconda3/envs/p4env/share/psi4/basis/def2-universal-jkfit.gbs 
    atoms 5-7, 9-10     entry C          line   198 file /home/vance/anaconda3/envs/p4env/share/psi4/basis/def2-universal-jkfit.gbs 
    atoms 8             entry N          line   258 file /home/vance/anaconda3/envs/p4env/share/psi4/basis/def2-universal-jkfit.gbs 

  ==> Integral Setup <==

  ==> DiskDFJK: Density-Fitted J/K Matrices <==

    J tasked:                  Yes
    K tasked:                  Yes
    wK tasked:                  No
    OpenMP threads:              4
    Integrals threads:           4
    Memory [MiB]:             5722
    Algorithm:                Core
    Integral Cache:           SAVE
    Schwarz Cutoff:          1E-12
    Fitting Condition:       1E-10

   => Auxiliary Basis Set <=

  Basis Set: (THIS_BASIS AUX)
    Blend: DEF2-UNIVERSAL-JKFIT
    Number of shells: 224
    Number of basis functions: 688
    Number of Cartesian functions: 813
    Spherical Harmonics?: true
    Max angular momentum: 4

  Minimum eigenvalue in the overlap matrix is 1.9500859910E-05.
  Reciprocal condition number of the overlap matrix is 1.7512814766E-06.
    Using symmetric orthogonalization.

  ==> Pre-Iterations <==

  SCF Guess: Superposition of Atomic Densities via on-the-fly atomic UHF (no occupation information).

   -------------------------
    Irrep   Nso     Nmo    
   -------------------------
     A        592     592 
   -------------------------
    Total     592     592
   -------------------------

  ==> Iterations <==

                           Total Energy        Delta E     RMS |[F,P]|

   @DF-RHF iter SAD:  -706.53375696418755   -7.06534e+02   0.00000e+00 
   @DF-RHF iter   1:  -706.76082145834528   -2.27064e-01   8.51992e-04 DIIS/ADIIS
   @DF-RHF iter   2:  -706.88173991709380   -1.20918e-01   3.41413e-04 DIIS/ADIIS
   @DF-RHF iter   3:  -706.89951821660145   -1.77783e-02   7.43968e-05 DIIS
   @DF-RHF iter   4:  -706.90090370125222   -1.38548e-03   2.15379e-05 DIIS
   @DF-RHF iter   5:  -706.90099225578820   -8.85545e-05   6.28810e-06 DIIS
   @DF-RHF iter   6:  -706.90100180480908   -9.54902e-06   2.49875e-06 DIIS
   @DF-RHF iter   7:  -706.90100353111188   -1.72630e-06   8.07745e-07 DIIS
   @DF-RHF iter   8:  -706.90100388365329   -3.52541e-07   3.34877e-07 DIIS
   @DF-RHF iter   9:  -706.90100395665900   -7.30057e-08   1.49070e-07 DIIS
   @DF-RHF iter  10:  -706.90100397266110   -1.60021e-08   6.25739e-08 DIIS
   @DF-RHF iter  11:  -706.90100397644756   -3.78645e-09   2.03731e-08 DIIS
   @DF-RHF iter  12:  -706.90100397687286   -4.25302e-10   4.86227e-09 DIIS
  Energy and wave function converged.


  ==> Post-Iterations <==

    Orbital Energies [Eh]
    ---------------------

    Doubly Occupied:                                                      

       1A   -104.736894     2A    -15.617777     3A    -11.316671  
       4A    -11.316650     5A    -11.295391     6A    -11.274451  
       7A    -11.274403     8A    -10.465568     9A     -7.932501  
      10A     -7.931454    11A     -7.931433    12A     -1.319249  
      13A     -1.134059    14A     -1.077205    15A     -1.022966  
      16A     -0.902302    17A     -0.900563    18A     -0.774778  
      19A     -0.706514    20A     -0.694339    21A     -0.664656  
      22A     -0.639133    23A     -0.593348    24A     -0.563013  
      25A     -0.560254    26A     -0.432723    27A     -0.399807  
      28A     -0.391519    29A     -0.388065    30A     -0.385343  

    Virtual:                                                              

      31A      0.057432    32A      0.082309    33A      0.087414  
      34A      0.105628    35A      0.117486    36A      0.147917  
      37A      0.150603    38A      0.179839    39A      0.180343  
      40A      0.198447    41A      0.211391    42A      0.218083  
      43A      0.221230    44A      0.237395    45A      0.239341  
      46A      0.258932    47A      0.264851    48A      0.268142  
      49A      0.308951    50A      0.318819    51A      0.340748  
      52A      0.347169    53A      0.347799    54A      0.365003  
      55A      0.371226    56A      0.375647    57A      0.391176  
      58A      0.392827    59A      0.403957    60A      0.424204  
      61A      0.445037    62A      0.448982    63A      0.462308  
      64A      0.464024    65A      0.464763    66A      0.480084  
      67A      0.508808    68A      0.509895    69A      0.529910  
      70A      0.536825    71A      0.539241    72A      0.550904  
      73A      0.562761    74A      0.574726    75A      0.588328  
      76A      0.604705    77A      0.606278    78A      0.620604  
      79A      0.650058    80A      0.658955    81A      0.663067  
      82A      0.673736    83A      0.680442    84A      0.690575  
      85A      0.740541    86A      0.748901    87A      0.771599  
      88A      0.800216    89A      0.804529    90A      0.817347  
      91A      0.824264    92A      0.849688    93A      0.854766  
      94A      0.873495    95A      0.888954    96A      0.891666  
      97A      0.894325    98A      0.896334    99A      0.914287  
     100A      0.916476   101A      0.920302   102A      0.929275  
     103A      0.943838   104A      0.961087   105A      0.977596  
     106A      0.999844   107A      1.010772   108A      1.014827  
     109A      1.034817   110A      1.046276   111A      1.066753  
     112A      1.070774   113A      1.081498   114A      1.099115  
     115A      1.105027   116A      1.111587   117A      1.135715  
     118A      1.146564   119A      1.149216   120A      1.174366  
     121A      1.175940   122A      1.191966   123A      1.219185  
     124A      1.219853   125A      1.231963   126A      1.238618  
     127A      1.268954   128A      1.291872   129A      1.325612  
     130A      1.335275   131A      1.344084   132A      1.346181  
     133A      1.353135   134A      1.376419   135A      1.382558  
     136A      1.398984   137A      1.419769   138A      1.466645  
     139A      1.469149   140A      1.480227   141A      1.493163  
     142A      1.507119   143A      1.512899   144A      1.520528  
     145A      1.529842   146A      1.533254   147A      1.573549  
     148A      1.584286   149A      1.593395   150A      1.619432  
     151A      1.626491   152A      1.632343   153A      1.649209  
     154A      1.653268   155A      1.668398   156A      1.721563  
     157A      1.756925   158A      1.767047   159A      1.809613  
     160A      1.810012   161A      1.812092   162A      1.821872  
     163A      1.847371   164A      1.897021   165A      1.911251  
     166A      1.913912   167A      1.943922   168A      1.966543  
     169A      1.972778   170A      1.973533   171A      1.986244  
     172A      1.990638   173A      2.031534   174A      2.032309  
     175A      2.034517   176A      2.060156   177A      2.060823  
     178A      2.091605   179A      2.140115   180A      2.147372  
     181A      2.154215   182A      2.177228   183A      2.188323  
     184A      2.189379   185A      2.193473   186A      2.195900  
     187A      2.207130   188A      2.211455   189A      2.222441  
     190A      2.251647   191A      2.277097   192A      2.297352  
     193A      2.302056   194A      2.307580   195A      2.328150  
     196A      2.335910   197A      2.344346   198A      2.355923  
     199A      2.398657   200A      2.408621   201A      2.416189  
     202A      2.421947   203A      2.435395   204A      2.462078  
     205A      2.463871   206A      2.466252   207A      2.492792  
     208A      2.500052   209A      2.504175   210A      2.585774  
     211A      2.588144   212A      2.601590   213A      2.607807  
     214A      2.621340   215A      2.626730   216A      2.660814  
     217A      2.665865   218A      2.710189   219A      2.715069  
     220A      2.717948   221A      2.729609   222A      2.734611  
     223A      2.749109   224A      2.751024   225A      2.759546  
     226A      2.790201   227A      2.799855   228A      2.800119  
     229A      2.823661   230A      2.841641   231A      2.849238  
     232A      2.849454   233A      2.870940   234A      2.874381  
     235A      2.893219   236A      2.928398   237A      2.941271  
     238A      2.952663   239A      2.987178   240A      3.000389  
     241A      3.006937   242A      3.032067   243A      3.036258  
     244A      3.051973   245A      3.055490   246A      3.081489  
     247A      3.092993   248A      3.134570   249A      3.185432  
     250A      3.212893   251A      3.239811   252A      3.255688  
     253A      3.256540   254A      3.292277   255A      3.315593  
     256A      3.316890   257A      3.350505   258A      3.357177  
     259A      3.414602   260A      3.427969   261A      3.456971  
     262A      3.484617   263A      3.535687   264A      3.547403  
     265A      3.576729   266A      3.577315   267A      3.592960  
     268A      3.622901   269A      3.651669   270A      3.652203  
     271A      3.657070   272A      3.675283   273A      3.704445  
     274A      3.712121   275A      3.777754   276A      3.779378  
     277A      3.779740   278A      3.780869   279A      3.787025  
     280A      3.814054   281A      3.818825   282A      3.824523  
     283A      3.880378   284A      3.913144   285A      3.916113  
     286A      3.953377   287A      3.982542   288A      4.006337  
     289A      4.008143   290A      4.017411   291A      4.023315  
     292A      4.041265   293A      4.041783   294A      4.108128  
     295A      4.122496   296A      4.151753   297A      4.152515  
     298A      4.171951   299A      4.186125   300A      4.195433  
     301A      4.219044   302A      4.239406   303A      4.277854  
     304A      4.304520   305A      4.324786   306A      4.329548  
     307A      4.359896   308A      4.371795   309A      4.396689  
     310A      4.400714   311A      4.416856   312A      4.439653  
     313A      4.480960   314A      4.486211   315A      4.487680  
     316A      4.504604   317A      4.530154   318A      4.532637  
     319A      4.575429   320A      4.687663   321A      4.725878  
     322A      4.765455   323A      4.786735   324A      4.805856  
     325A      4.833368   326A      4.868839   327A      4.949173  
     328A      4.970202   329A      5.048832   330A      5.073864  
     331A      5.107866   332A      5.148951   333A      5.200643  
     334A      5.204224   335A      5.238417   336A      5.242489  
     337A      5.245758   338A      5.359669   339A      5.383496  
     340A      5.388512   341A      5.404153   342A      5.430967  
     343A      5.457983   344A      5.525242   345A      5.533767  
     346A      5.549246   347A      5.575572   348A      5.581843  
     349A      5.584643   350A      5.616126   351A      5.697735  
     352A      5.719716   353A      5.740701   354A      5.760325  
     355A      5.760445   356A      5.767857   357A      5.821515  
     358A      5.838869   359A      5.864999   360A      5.867614  
     361A      5.882961   362A      5.887349   363A      5.977631  
     364A      5.981250   365A      5.993077   366A      6.042242  
     367A      6.073124   368A      6.085949   369A      6.105537  
     370A      6.108463   371A      6.155861   372A      6.173591  
     373A      6.183724   374A      6.190120   375A      6.190598  
     376A      6.196384   377A      6.282557   378A      6.285534  
     379A      6.312596   380A      6.335521   381A      6.341787  
     382A      6.343953   383A      6.345511   384A      6.404476  
     385A      6.410231   386A      6.415979   387A      6.422254  
     388A      6.450768   389A      6.456056   390A      6.465489  
     391A      6.485393   392A      6.485617   393A      6.486058  
     394A      6.506723   395A      6.533889   396A      6.551361  
     397A      6.574728   398A      6.586445   399A      6.591870  
     400A      6.602778   401A      6.624156   402A      6.625703  
     403A      6.635583   404A      6.651875   405A      6.672192  
     406A      6.703034   407A      6.710992   408A      6.777762  
     409A      6.783940   410A      6.802587   411A      6.819692  
     412A      6.864047   413A      6.866564   414A      6.884004  
     415A      6.888183   416A      6.912531   417A      6.967896  
     418A      6.979552   419A      6.997541   420A      7.013593  
     421A      7.029485   422A      7.064779   423A      7.066623  
     424A      7.111204   425A      7.117718   426A      7.156781  
     427A      7.163269   428A      7.223297   429A      7.245890  
     430A      7.253057   431A      7.269068   432A      7.297687  
     433A      7.308354   434A      7.389384   435A      7.428325  
     436A      7.438385   437A      7.442367   438A      7.466882  
     439A      7.487832   440A      7.515991   441A      7.516130  
     442A      7.543834   443A      7.558718   444A      7.661250  
     445A      7.714775   446A      7.762222   447A      7.767063  
     448A      7.769764   449A      7.804417   450A      7.832418  
     451A      7.858329   452A      7.864286   453A      7.876691  
     454A      7.880889   455A      7.888092   456A      7.934500  
     457A      7.937856   458A      7.989284   459A      8.011182  
     460A      8.041419   461A      8.071829   462A      8.082489  
     463A      8.091749   464A      8.102851   465A      8.132883  
     466A      8.151392   467A      8.210200   468A      8.232895  
     469A      8.243939   470A      8.244280   471A      8.277667  
     472A      8.306797   473A      8.311205   474A      8.355187  
     475A      8.378666   476A      8.383762   477A      8.389600  
     478A      8.409764   479A      8.425541   480A      8.474072  
     481A      8.485189   482A      8.489721   483A      8.505774  
     484A      8.526756   485A      8.535307   486A      8.603402  
     487A      8.621235   488A      8.672780   489A      8.681664  
     490A      8.687871   491A      8.711976   492A      8.717320  
     493A      8.751427   494A      8.754106   495A      8.757172  
     496A      8.763702   497A      8.807404   498A      8.813480  
     499A      8.846605   500A      8.848911   501A      8.865714  
     502A      8.870977   503A      8.893886   504A      8.909997  
     505A      8.971858   506A      8.974031   507A      9.010643  
     508A      9.027666   509A      9.073279   510A      9.086845  
     511A      9.103721   512A      9.131806   513A      9.138876  
     514A      9.171911   515A      9.257894   516A      9.288761  
     517A      9.310071   518A      9.382676   519A      9.414669  
     520A      9.493852   521A      9.558525   522A      9.586833  
     523A      9.632467   524A      9.660555   525A      9.679484  
     526A      9.817340   527A      9.851772   528A      9.857554  
     529A      9.912542   530A      9.969013   531A      9.983576  
     532A     10.072045   533A     10.083949   534A     10.118305  
     535A     10.142792   536A     10.163117   537A     10.192700  
     538A     10.235731   539A     10.247726   540A     10.306578  
     541A     10.322278   542A     10.444044   543A     10.500276  
     544A     10.558673   545A     10.570719   546A     10.618029  
     547A     10.654715   548A     10.720587   549A     10.747232  
     550A     10.845217   551A     10.890101   552A     11.020325  
     553A     11.101780   554A     11.152013   555A     11.179468  
     556A     11.230478   557A     11.312470   558A     11.379401  
     559A     11.394858   560A     11.438966   561A     11.556922  
     562A     11.575550   563A     11.651463   564A     11.931999  
     565A     12.291805   566A     12.438936   567A     12.541485  
     568A     12.681318   569A     12.820068   570A     13.156496  
     571A     13.172496   572A     13.402811   573A     13.474774  
     574A     13.680017   575A     28.971378   576A     29.467322  
     577A     29.642900   578A     29.989947   579A     30.133340  
     580A     30.206440   581A     38.958058   582A     43.387198  
     583A     43.391321   584A     43.608889   585A    100.549881  
     586A    149.545499   587A    150.023694   588A    150.180112  
     589A    150.525892   590A    150.742852   591A    200.106974  
     592A    530.936775  

    Final Occupation by Irrep:
              A 
    DOCC [    30 ]
    NA   [    30 ]
    NB   [    30 ]

  @DF-RHF Final Energy:  -706.90100397687286

   => Energetics <=

    Nuclear Repulsion Energy =            319.0458160919256443
    One-Electron Energy =               -1602.6075802855689290
    Two-Electron Energy =                 576.6607602167704272
    Total Energy =                       -706.9010039768728575

Computation Completed


Properties will be evaluated at   0.000000,   0.000000,   0.000000 [a0]

Properties computed using the SCF density matrix


 Multipole Moments:

 ------------------------------------------------------------------------------------
     Multipole            Electronic (a.u.)      Nuclear  (a.u.)        Total (a.u.)
 ------------------------------------------------------------------------------------

 L = 1.  Multiply by 2.5417464519 to convert [e a0] to [Debye]
 Dipole X            :         -0.0000000           -0.0000000           -0.0000000
 Dipole Y            :         -0.0000000           -0.0000000           -0.0000000
 Dipole Z            :          6.0505797           -9.2170673           -3.1664876
 Magnitude           :                                                    3.1664876

 ------------------------------------------------------------------------------------

*** tstop() called on cmpsrv002 at Thu Sep 19 14:34:51 2024
Module time:
	user time   =      53.91 seconds =       0.90 minutes
	system time =       4.97 seconds =       0.08 minutes
	total time  =       1128 seconds =      18.80 minutes
Total time:
	user time   =      53.92 seconds =       0.90 minutes
	system time =       4.97 seconds =       0.08 minutes
	total time  =       1128 seconds =      18.80 minutes
   => Libint2 <=

    Primary   basis highest AM E, G, H:  6, 6, 3
    Auxiliary basis highest AM E, G, H:  7, 7, 4
    Onebody   basis highest AM E, G, H:  -, -, -
    Solid Harmonics ordering:            Gaussian

*** tstart() called on cmpsrv002
*** at Thu Sep 19 14:34:51 2024

   => Loading Basis Set <=

    Name: THIS_BASIS
    Role: ORBITAL
    Keyword: BASIS
    atoms 1, 3-4, 11-13 entry H          line    15 file /home/vance/anaconda3/envs/p4env/share/psi4/basis/def2-qzvp.gbs 
    atoms 2             entry CL         line   809 file /home/vance/anaconda3/envs/p4env/share/psi4/basis/def2-qzvp.gbs 
    atoms 5-7, 9-10     entry C          line   194 file /home/vance/anaconda3/envs/p4env/share/psi4/basis/def2-qzvp.gbs 
    atoms 8             entry N          line   242 file /home/vance/anaconda3/envs/p4env/share/psi4/basis/def2-qzvp.gbs 


         ---------------------------------------------------------
                       SAPT(DFT): delta HF Monomer A               
         ---------------------------------------------------------
                                   SCF
               by Justin Turney, Rob Parrish, Andy Simmonett
                          and Daniel G. A. Smith
                              RHF Reference
                        4 Threads,   7629 MiB Core
         ---------------------------------------------------------

  ==> Geometry <==

    Molecular point group: c1
    Full point group: C2v

    Geometry (in Angstrom), charge = 0, multiplicity = 1:

       Center              X                  Y                   Z               Mass       
    ------------   -----------------  -----------------  -----------------  -----------------
         H            0.000000000000     0.000000000000     1.405224134281     1.007825032230
         CL           0.000000000000     0.000000000000     2.772684134281    34.968852682000
      Gh(H)           0.000000000000    -2.147710000000    -2.448375865719     1.007825032230
      Gh(H)           0.000000000000    -2.051420000000     0.045154134281     1.007825032230
      Gh(C)           0.000000000000     0.000000000000    -2.642175865719    12.000000000000
      Gh(C)           0.000000000000    -1.196400000000    -1.938055865719    12.000000000000
      Gh(C)           0.000000000000    -1.149310000000    -0.552125865719    12.000000000000
      Gh(N)           0.000000000000     0.000000000000     0.120874134281    14.003074004430
      Gh(C)          -0.000000000000     1.149310000000    -0.552125865719    12.000000000000
      Gh(C)          -0.000000000000     1.196400000000    -1.938055865719    12.000000000000
      Gh(H)          -0.000000000000     2.051420000000     0.045154134281     1.007825032230
      Gh(H)          -0.000000000000     2.147710000000    -2.448375865719     1.007825032230
      Gh(H)           0.000000000000     0.000000000000    -3.722755865719     1.007825032230

  Running in c1 symmetry.

  Rotational constants: A =      0.20108  B =      0.03524  C =      0.02999 [cm^-1]
  Rotational constants: A =   6028.26605  B =   1056.57839  C =    899.00853 [MHz]
  Nuclear repulsion =    6.578629416136487

  Charge       = 0
  Multiplicity = 1
  Electrons    = 18
  Nalpha       = 9
  Nbeta        = 9

  ==> Algorithm <==

  SCF Algorithm Type is DF.
  DIIS enabled.
  MOM disabled.
  Fractional occupation disabled.
  Guess Type is SAD.
  Energy threshold   = 1.00e-08
  Density threshold  = 1.00e-08
  Integral threshold = 1.00e-12

  ==> Primary Basis <==

  Basis Set: THIS_BASIS
    Blend: DEF2-QZVP
    Number of shells: 184
    Number of basis functions: 592
    Number of Cartesian functions: 728
    Spherical Harmonics?: true
    Max angular momentum: 4

   => Loading Basis Set <=

    Name: (THIS_BASIS AUX)
    Role: JKFIT
    Keyword: DF_BASIS_SCF
    atoms 1, 3-4, 11-13 entry H          line    18 file /home/vance/anaconda3/envs/p4env/share/psi4/basis/def2-universal-jkfit.gbs 
    atoms 2             entry CL         line   986 file /home/vance/anaconda3/envs/p4env/share/psi4/basis/def2-universal-jkfit.gbs 
    atoms 5-7, 9-10     entry C          line   198 file /home/vance/anaconda3/envs/p4env/share/psi4/basis/def2-universal-jkfit.gbs 
    atoms 8             entry N          line   258 file /home/vance/anaconda3/envs/p4env/share/psi4/basis/def2-universal-jkfit.gbs 

  ==> Integral Setup <==

  ==> DiskDFJK: Density-Fitted J/K Matrices <==

    J tasked:                  Yes
    K tasked:                  Yes
    wK tasked:                  No
    OpenMP threads:              4
    Integrals threads:           4
    Memory [MiB]:             5722
    Algorithm:                Core
    Integral Cache:           SAVE
    Schwarz Cutoff:          1E-12
    Fitting Condition:       1E-10

   => Auxiliary Basis Set <=

  Basis Set: (THIS_BASIS AUX)
    Blend: DEF2-UNIVERSAL-JKFIT
    Number of shells: 224
    Number of basis functions: 688
    Number of Cartesian functions: 813
    Spherical Harmonics?: true
    Max angular momentum: 4

  Minimum eigenvalue in the overlap matrix is 1.9500859910E-05.
  Reciprocal condition number of the overlap matrix is 1.7512814766E-06.
    Using symmetric orthogonalization.

  ==> Pre-Iterations <==

  SCF Guess: Superposition of Atomic Densities via on-the-fly atomic UHF (no occupation information).

   -------------------------
    Irrep   Nso     Nmo    
   -------------------------
     A        592     592 
   -------------------------
    Total     592     592
   -------------------------

  ==> Iterations <==

                           Total Energy        Delta E     RMS |[F,P]|

   @DF-RHF iter SAD:  -459.85761989795128   -4.59858e+02   0.00000e+00 
   @DF-RHF iter   1:  -460.08219993661851   -2.24580e-01   3.75675e-04 DIIS/ADIIS
   @DF-RHF iter   2:  -460.10311203937846   -2.09121e-02   1.60939e-04 DIIS/ADIIS
   @DF-RHF iter   3:  -460.10617530053668   -3.06326e-03   2.75914e-05 DIIS
   @DF-RHF iter   4:  -460.10653808760122   -3.62787e-04   8.84166e-06 DIIS
   @DF-RHF iter   5:  -460.10658547857457   -4.73910e-05   1.57005e-06 DIIS
   @DF-RHF iter   6:  -460.10658677728532   -1.29871e-06   3.38216e-07 DIIS
   @DF-RHF iter   7:  -460.10658680287372   -2.55884e-08   7.30775e-08 DIIS
   @DF-RHF iter   8:  -460.10658680495231   -2.07859e-09   1.47176e-08 DIIS
   @DF-RHF iter   9:  -460.10658680504019   -8.78799e-11   2.20977e-09 DIIS
  Energy and wave function converged.


  ==> Post-Iterations <==

    Orbital Energies [Eh]
    ---------------------

    Doubly Occupied:                                                      

       1A   -104.853099     2A    -10.576369     3A     -8.043418  
       4A     -8.041851     5A     -8.041850     6A     -1.101161  
       7A     -0.605874     8A     -0.474638     9A     -0.474629  

    Virtual:                                                              

      10A      0.041030    11A      0.083710    12A      0.084394  
      13A      0.124575    14A      0.133833    15A      0.139057  
      16A      0.154762    17A      0.176511    18A      0.188954  
      19A      0.190438    20A      0.204330    21A      0.223791  
      22A      0.232535    23A      0.236284    24A      0.261671  
      25A      0.263623    26A      0.264727    27A      0.273848  
      28A      0.293071    29A      0.315015    30A      0.315253  
      31A      0.342948    32A      0.343167    33A      0.351598  
      34A      0.363145    35A      0.375509    36A      0.384138  
      37A      0.401436    38A      0.413484    39A      0.415153  
      40A      0.423496    41A      0.454822    42A      0.488177  
      43A      0.498559    44A      0.500476    45A      0.501277  
      46A      0.541607    47A      0.554142    48A      0.588007  
      49A      0.591747    50A      0.598533    51A      0.607868  
      52A      0.609952    53A      0.617386    54A      0.625926  
      55A      0.650795    56A      0.679884    57A      0.685036  
      58A      0.698133    59A      0.721926    60A      0.731592  
      61A      0.744309    62A      0.755463    63A      0.760658  
      64A      0.790439    65A      0.795260    66A      0.801662  
      67A      0.819614    68A      0.825927    69A      0.826529  
      70A      0.834203    71A      0.840917    72A      0.862352  
      73A      0.891415    74A      0.912461    75A      0.913810  
      76A      0.920332    77A      0.922159    78A      0.937131  
      79A      0.948544    80A      0.987874    81A      1.008777  
      82A      1.023332    83A      1.028377    84A      1.036021  
      85A      1.060629    86A      1.067335    87A      1.081472  
      88A      1.099263    89A      1.150817    90A      1.164682  
      91A      1.168046    92A      1.177936    93A      1.182629  
      94A      1.191307    95A      1.206684    96A      1.220082  
      97A      1.264525    98A      1.282586    99A      1.293771  
     100A      1.301863   101A      1.314285   102A      1.318818  
     103A      1.338739   104A      1.358696   105A      1.375985  
     106A      1.385176   107A      1.386990   108A      1.395023  
     109A      1.412677   110A      1.418744   111A      1.428725  
     112A      1.439655   113A      1.446691   114A      1.471760  
     115A      1.480953   116A      1.491751   117A      1.511276  
     118A      1.519272   119A      1.521628   120A      1.539965  
     121A      1.552676   122A      1.563750   123A      1.571564  
     124A      1.578078   125A      1.600455   126A      1.617106  
     127A      1.627651   128A      1.635261   129A      1.651297  
     130A      1.678392   131A      1.691516   132A      1.700726  
     133A      1.717655   134A      1.747737   135A      1.754265  
     136A      1.754779   137A      1.787971   138A      1.825888  
     139A      1.849472   140A      1.851378   141A      1.865386  
     142A      1.888431   143A      1.905472   144A      1.945998  
     145A      1.962150   146A      1.962754   147A      1.985012  
     148A      2.000343   149A      2.042387   150A      2.080932  
     151A      2.109508   152A      2.175939   153A      2.181632  
     154A      2.202328   155A      2.214239   156A      2.275371  
     157A      2.287863   158A      2.331383   159A      2.334309  
     160A      2.339743   161A      2.362346   162A      2.376132  
     163A      2.392655   164A      2.415919   165A      2.430601  
     166A      2.434154   167A      2.451075   168A      2.454571  
     169A      2.471723   170A      2.474972   171A      2.505226  
     172A      2.518825   173A      2.528365   174A      2.536915  
     175A      2.558225   176A      2.564463   177A      2.567487  
     178A      2.569642   179A      2.573577   180A      2.582834  
     181A      2.612253   182A      2.615327   183A      2.615953  
     184A      2.622178   185A      2.642398   186A      2.642528  
     187A      2.650937   188A      2.661555   189A      2.691934  
     190A      2.697520   191A      2.707642   192A      2.707772  
     193A      2.750088   194A      2.766706   195A      2.770551  
     196A      2.803486   197A      2.816414   198A      2.832134  
     199A      2.832236   200A      2.845550   201A      2.881535  
     202A      2.903995   203A      2.916459   204A      2.916653  
     205A      2.932543   206A      2.957234   207A      2.970618  
     208A      2.972761   209A      2.993542   210A      3.002880  
     211A      3.004416   212A      3.029857   213A      3.055701  
     214A      3.057275   215A      3.070704   216A      3.107284  
     217A      3.132958   218A      3.141890   219A      3.147711  
     220A      3.150008   221A      3.189199   222A      3.203734  
     223A      3.206276   224A      3.225927   225A      3.243871  
     226A      3.309274   227A      3.323402   228A      3.337620  
     229A      3.357737   230A      3.359571   231A      3.376100  
     232A      3.395351   233A      3.420004   234A      3.444983  
     235A      3.460884   236A      3.486602   237A      3.500923  
     238A      3.556122   239A      3.563705   240A      3.593965  
     241A      3.609499   242A      3.611356   243A      3.622371  
     244A      3.635750   245A      3.636023   246A      3.663182  
     247A      3.688334   248A      3.691755   249A      3.701005  
     250A      3.764084   251A      3.765541   252A      3.787883  
     253A      3.842068   254A      3.864397   255A      3.897010  
     256A      3.913821   257A      3.931089   258A      3.939836  
     259A      3.940132   260A      3.962350   261A      3.962838  
     262A      3.993084   263A      4.001594   264A      4.053743  
     265A      4.072340   266A      4.091653   267A      4.146377  
     268A      4.157842   269A      4.162246   270A      4.196188  
     271A      4.197747   272A      4.212554   273A      4.227414  
     274A      4.253252   275A      4.259499   276A      4.268916  
     277A      4.279030   278A      4.309486   279A      4.315357  
     280A      4.329145   281A      4.370783   282A      4.386441  
     283A      4.452678   284A      4.480687   285A      4.487545  
     286A      4.515210   287A      4.557380   288A      4.561193  
     289A      4.623239   290A      4.625647   291A      4.685035  
     292A      4.711216   293A      4.718584   294A      4.739859  
     295A      4.778522   296A      4.826795   297A      4.855215  
     298A      4.871585   299A      4.913859   300A      4.930687  
     301A      5.031229   302A      5.054667   303A      5.074802  
     304A      5.079853   305A      5.214877   306A      5.221041  
     307A      5.291224   308A      5.404502   309A      5.486463  
     310A      5.493011   311A      5.505250   312A      5.601001  
     313A      5.686142   314A      5.732863   315A      5.745962  
     316A      5.831592   317A      5.846841   318A      5.872286  
     319A      5.884460   320A      5.889810   321A      5.893767  
     322A      5.927302   323A      5.939671   324A      5.984186  
     325A      6.002548   326A      6.010791   327A      6.031987  
     328A      6.035778   329A      6.091647   330A      6.097290  
     331A      6.114101   332A      6.119353   333A      6.133262  
     334A      6.185965   335A      6.198809   336A      6.203009  
     337A      6.243501   338A      6.268047   339A      6.284377  
     340A      6.309210   341A      6.313284   342A      6.363554  
     343A      6.409382   344A      6.419788   345A      6.427843  
     346A      6.452456   347A      6.507891   348A      6.508429  
     349A      6.514591   350A      6.547226   351A      6.577469  
     352A      6.584016   353A      6.604284   354A      6.653028  
     355A      6.691141   356A      6.718032   357A      6.739000  
     358A      6.747449   359A      6.802671   360A      6.849203  
     361A      6.849302   362A      6.866258   363A      6.870491  
     364A      6.902670   365A      6.918902   366A      6.931061  
     367A      6.944843   368A      6.946583   369A      6.981111  
     370A      7.016960   371A      7.022127   372A      7.036886  
     373A      7.058926   374A      7.063328   375A      7.085252  
     376A      7.126304   377A      7.145790   378A      7.183479  
     379A      7.197136   380A      7.203558   381A      7.236376  
     382A      7.263805   383A      7.283281   384A      7.292903  
     385A      7.318346   386A      7.417617   387A      7.440980  
     388A      7.449844   389A      7.459605   390A      7.494985  
     391A      7.507104   392A      7.546553   393A      7.592613  
     394A      7.631638   395A      7.656892   396A      7.663729  
     397A      7.664693   398A      7.689590   399A      7.718031  
     400A      7.728111   401A      7.758976   402A      7.774986  
     403A      7.784728   404A      7.798075   405A      7.835883  
     406A      7.860230   407A      7.860488   408A      7.902134  
     409A      7.956189   410A      7.997175   411A      8.015728  
     412A      8.042103   413A      8.044572   414A      8.062110  
     415A      8.087168   416A      8.091123   417A      8.192780  
     418A      8.201620   419A      8.252735   420A      8.295159  
     421A      8.312698   422A      8.349425   423A      8.360349  
     424A      8.364236   425A      8.367315   426A      8.408811  
     427A      8.411489   428A      8.431172   429A      8.431347  
     430A      8.456192   431A      8.461670   432A      8.498499  
     433A      8.501234   434A      8.540240   435A      8.557580  
     436A      8.580576   437A      8.628659   438A      8.646320  
     439A      8.653471   440A      8.674064   441A      8.693221  
     442A      8.715585   443A      8.715810   444A      8.719312  
     445A      8.819520   446A      8.829620   447A      8.834534  
     448A      8.839724   449A      8.922628   450A      8.930146  
     451A      8.934438   452A      8.941228   453A      8.955776  
     454A      8.996851   455A      9.001715   456A      9.040955  
     457A      9.067972   458A      9.074833   459A      9.080195  
     460A      9.093030   461A      9.123221   462A      9.129565  
     463A      9.139450   464A      9.147790   465A      9.150338  
     466A      9.163141   467A      9.226359   468A      9.236973  
     469A      9.251915   470A      9.259764   471A      9.287520  
     472A      9.288043   473A      9.304845   474A      9.333401  
     475A      9.394379   476A      9.412413   477A      9.412416  
     478A      9.418652   479A      9.460569   480A      9.473729  
     481A      9.511225   482A      9.544914   483A      9.551032  
     484A      9.572139   485A      9.602750   486A      9.646309  
     487A      9.655126   488A      9.684561   489A      9.752386  
     490A      9.796612   491A      9.840172   492A      9.927164  
     493A      9.955173   494A      9.982217   495A     10.010996  
     496A     10.020891   497A     10.045296   498A     10.056625  
     499A     10.077117   500A     10.204173   501A     10.271512  
     502A     10.320042   503A     10.369332   504A     10.442250  
     505A     10.450755   506A     10.453945   507A     10.454499  
     508A     10.457039   509A     10.536536   510A     10.610016  
     511A     10.615857   512A     10.628443   513A     10.636212  
     514A     10.715706   515A     10.737568   516A     10.808690  
     517A     10.810595   518A     10.854888   519A     10.932278  
     520A     10.955962   521A     11.004561   522A     11.016265  
     523A     11.083742   524A     11.184735   525A     11.195348  
     526A     11.215854   527A     11.244271   528A     11.280395  
     529A     11.298459   530A     11.388100   531A     11.405245  
     532A     11.429648   533A     11.454018   534A     11.463735  
     535A     11.519858   536A     11.615550   537A     11.701515  
     538A     11.832762   539A     11.846512   540A     11.887477  
     541A     11.933061   542A     12.045976   543A     12.092027  
     544A     12.123404   545A     12.258886   546A     12.282128  
     547A     12.370638   548A     12.388428   549A     12.492581  
     550A     12.650682   551A     12.814912   552A     13.216022  
     553A     13.258691   554A     13.376418   555A     13.581995  
     556A     13.751442   557A     14.027580   558A     14.028029  
     559A     14.051256   560A     14.244913   561A     14.574187  
     562A     14.765499   563A     15.052580   564A     15.278362  
     565A     15.501355   566A     15.943115   567A     16.451926  
     568A     17.107221   569A     18.597599   570A     19.139196  
     571A     19.232475   572A     19.505751   573A     19.589539  
     574A     24.771318   575A     30.045985   576A     43.275112  
     577A     43.279291   578A     43.494615   579A     51.558528  
     580A     51.965243   581A     52.110885   582A     52.390909  
     583A     52.560947   584A     69.962744   585A    100.437677  
     586A    236.256087   587A    236.749372   588A    236.918621  
     589A    237.261935   590A    237.482853   591A    318.218335  
     592A    530.821446  

    Final Occupation by Irrep:
              A 
    DOCC [     9 ]
    NA   [     9 ]
    NB   [     9 ]

  @DF-RHF Final Energy:  -460.10658680504019

   => Energetics <=

    Nuclear Repulsion Energy =              6.5786294161364873
    One-Electron Energy =                -648.9446589743939739
    Two-Electron Energy =                 182.2594427532173142
    Total Energy =                       -460.1065868050402514

Computation Completed


Properties will be evaluated at   0.000000,   0.000000,   0.000000 [a0]

Properties computed using the SCF density matrix


 Multipole Moments:

 ------------------------------------------------------------------------------------
     Multipole            Electronic (a.u.)      Nuclear  (a.u.)        Total (a.u.)
 ------------------------------------------------------------------------------------

 L = 1.  Multiply by 2.5417464519 to convert [e a0] to [Debye]
 Dipole X            :         -0.0000000            0.0000000           -0.0000000
 Dipole Y            :         -0.0000000            0.0000000           -0.0000000
 Dipole Z            :        -92.2384949           91.7289207           -0.5095741
 Magnitude           :                                                    0.5095741

 ------------------------------------------------------------------------------------

*** tstop() called on cmpsrv002 at Thu Sep 19 14:54:36 2024
Module time:
	user time   =      33.48 seconds =       0.56 minutes
	system time =      16.83 seconds =       0.28 minutes
	total time  =       1197 seconds =      19.95 minutes
Total time:
	user time   =      94.30 seconds =       1.57 minutes
	system time =      21.91 seconds =       0.37 minutes
	total time  =       2308 seconds =      38.47 minutes
   => Libint2 <=

    Primary   basis highest AM E, G, H:  6, 6, 3
    Auxiliary basis highest AM E, G, H:  7, 7, 4
    Onebody   basis highest AM E, G, H:  -, -, -
    Solid Harmonics ordering:            Gaussian

*** tstart() called on cmpsrv002
*** at Thu Sep 19 14:54:36 2024

   => Loading Basis Set <=

    Name: THIS_BASIS
    Role: ORBITAL
    Keyword: BASIS
    atoms 1, 3-4, 11-13 entry H          line    15 file /home/vance/anaconda3/envs/p4env/share/psi4/basis/def2-qzvp.gbs 
    atoms 2             entry CL         line   809 file /home/vance/anaconda3/envs/p4env/share/psi4/basis/def2-qzvp.gbs 
    atoms 5-7, 9-10     entry C          line   194 file /home/vance/anaconda3/envs/p4env/share/psi4/basis/def2-qzvp.gbs 
    atoms 8             entry N          line   242 file /home/vance/anaconda3/envs/p4env/share/psi4/basis/def2-qzvp.gbs 


         ---------------------------------------------------------
                       SAPT(DFT): delta HF Monomer B               
         ---------------------------------------------------------
                                   SCF
               by Justin Turney, Rob Parrish, Andy Simmonett
                          and Daniel G. A. Smith
                              RHF Reference
                        4 Threads,   7629 MiB Core
         ---------------------------------------------------------

  ==> Geometry <==

    Molecular point group: c1
    Full point group: C2v

    Geometry (in Angstrom), charge = 0, multiplicity = 1:

       Center              X                  Y                   Z               Mass       
    ------------   -----------------  -----------------  -----------------  -----------------
      Gh(H)           0.000000000000     0.000000000000     1.405224134281     1.007825032230
      Gh(CL)          0.000000000000     0.000000000000     2.772684134281    34.968852682000
         H            0.000000000000    -2.147710000000    -2.448375865719     1.007825032230
         H            0.000000000000    -2.051420000000     0.045154134281     1.007825032230
         C            0.000000000000     0.000000000000    -2.642175865719    12.000000000000
         C            0.000000000000    -1.196400000000    -1.938055865719    12.000000000000
         C            0.000000000000    -1.149310000000    -0.552125865719    12.000000000000
         N            0.000000000000     0.000000000000     0.120874134281    14.003074004430
         C           -0.000000000000     1.149310000000    -0.552125865719    12.000000000000
         C           -0.000000000000     1.196400000000    -1.938055865719    12.000000000000
         H           -0.000000000000     2.051420000000     0.045154134281     1.007825032230
         H           -0.000000000000     2.147710000000    -2.448375865719     1.007825032230
         H            0.000000000000     0.000000000000    -3.722755865719     1.007825032230

  Running in c1 symmetry.

  Rotational constants: A =      0.20108  B =      0.03524  C =      0.02999 [cm^-1]
  Rotational constants: A =   6028.26605  B =   1056.57839  C =    899.00853 [MHz]
  Nuclear repulsion =  206.982866743598265

  Charge       = 0
  Multiplicity = 1
  Electrons    = 42
  Nalpha       = 21
  Nbeta        = 21

  ==> Algorithm <==

  SCF Algorithm Type is DF.
  DIIS enabled.
  MOM disabled.
  Fractional occupation disabled.
  Guess Type is SAD.
  Energy threshold   = 1.00e-08
  Density threshold  = 1.00e-08
  Integral threshold = 1.00e-12

  ==> Primary Basis <==

  Basis Set: THIS_BASIS
    Blend: DEF2-QZVP
    Number of shells: 184
    Number of basis functions: 592
    Number of Cartesian functions: 728
    Spherical Harmonics?: true
    Max angular momentum: 4

   => Loading Basis Set <=

    Name: (THIS_BASIS AUX)
    Role: JKFIT
    Keyword: DF_BASIS_SCF
    atoms 1, 3-4, 11-13 entry H          line    18 file /home/vance/anaconda3/envs/p4env/share/psi4/basis/def2-universal-jkfit.gbs 
    atoms 2             entry CL         line   986 file /home/vance/anaconda3/envs/p4env/share/psi4/basis/def2-universal-jkfit.gbs 
    atoms 5-7, 9-10     entry C          line   198 file /home/vance/anaconda3/envs/p4env/share/psi4/basis/def2-universal-jkfit.gbs 
    atoms 8             entry N          line   258 file /home/vance/anaconda3/envs/p4env/share/psi4/basis/def2-universal-jkfit.gbs 

  ==> Integral Setup <==

  ==> DiskDFJK: Density-Fitted J/K Matrices <==

    J tasked:                  Yes
    K tasked:                  Yes
    wK tasked:                  No
    OpenMP threads:              4
    Integrals threads:           4
    Memory [MiB]:             5722
    Algorithm:                Core
    Integral Cache:           SAVE
    Schwarz Cutoff:          1E-12
    Fitting Condition:       1E-10

   => Auxiliary Basis Set <=

  Basis Set: (THIS_BASIS AUX)
    Blend: DEF2-UNIVERSAL-JKFIT
    Number of shells: 224
    Number of basis functions: 688
    Number of Cartesian functions: 813
    Spherical Harmonics?: true
    Max angular momentum: 4

  Minimum eigenvalue in the overlap matrix is 1.9500859910E-05.
  Reciprocal condition number of the overlap matrix is 1.7512814766E-06.
    Using symmetric orthogonalization.

  ==> Pre-Iterations <==

  SCF Guess: Superposition of Atomic Densities via on-the-fly atomic UHF (no occupation information).

   -------------------------
    Irrep   Nso     Nmo    
   -------------------------
     A        592     592 
   -------------------------
    Total     592     592
   -------------------------

  ==> Iterations <==

                           Total Energy        Delta E     RMS |[F,P]|

   @DF-RHF iter SAD:  -246.24944499897791   -2.46249e+02   0.00000e+00 
   @DF-RHF iter   1:  -246.65245260929930   -4.03008e-01   8.31481e-04 DIIS/ADIIS
   @DF-RHF iter   2:  -246.76972627775291   -1.17274e-01   3.85562e-04 DIIS/ADIIS
   @DF-RHF iter   3:  -246.79372837870739   -2.40021e-02   7.67684e-05 DIIS
   @DF-RHF iter   4:  -246.79514470660331   -1.41633e-03   2.43163e-05 DIIS
   @DF-RHF iter   5:  -246.79524479742889   -1.00091e-04   7.14363e-06 DIIS
   @DF-RHF iter   6:  -246.79525601250046   -1.12151e-05   1.71497e-06 DIIS
   @DF-RHF iter   7:  -246.79525691115435   -8.98654e-07   6.44029e-07 DIIS
   @DF-RHF iter   8:  -246.79525704853819   -1.37384e-07   2.89080e-07 DIIS
   @DF-RHF iter   9:  -246.79525710007294   -5.15348e-08   9.33260e-08 DIIS
   @DF-RHF iter  10:  -246.79525710828699   -8.21404e-09   3.16313e-08 DIIS
   @DF-RHF iter  11:  -246.79525710937259   -1.08560e-09   1.81198e-08 DIIS
   @DF-RHF iter  12:  -246.79525710959751   -2.24929e-10   4.15918e-09 DIIS
  Energy and wave function converged.


  ==> Post-Iterations <==

    Orbital Energies [Eh]
    ---------------------

    Doubly Occupied:                                                      

       1A    -15.560453     2A    -11.272212     3A    -11.272194  
       4A    -11.257404     5A    -11.239968     6A    -11.239913  
       7A     -1.259509     8A     -1.088827     9A     -1.037042  
      10A     -0.858518    11A     -0.858397    12A     -0.723773  
      13A     -0.662708    14A     -0.654406    15A     -0.602461  
      16A     -0.575818    17A     -0.543687    18A     -0.523243  
      19A     -0.413612    20A     -0.383638    21A     -0.349743  

    Virtual:                                                              

      22A      0.098399    23A      0.099376    24A      0.112130  
      25A      0.114049    26A      0.121165    27A      0.142395  
      28A      0.152017    29A      0.176882    30A      0.188137  
      31A      0.206937    32A      0.207177    33A      0.219793  
      34A      0.230612    35A      0.241997    36A      0.247923  
      37A      0.256942    38A      0.266973    39A      0.268778  
      40A      0.299151    41A      0.313961    42A      0.325175  
      43A      0.331259    44A      0.364403    45A      0.377445  
      46A      0.379882    47A      0.396871    48A      0.399028  
      49A      0.411275    50A      0.427350    51A      0.451264  
      52A      0.455442    53A      0.478039    54A      0.479793  
      55A      0.493718    56A      0.504755    57A      0.508041  
      58A      0.517992    59A      0.538101    60A      0.540813  
      61A      0.553030    62A      0.564981    63A      0.565327  
      64A      0.617209    65A      0.630747    66A      0.651062  
      67A      0.656030    68A      0.686774    69A      0.690955  
      70A      0.690991    71A      0.703125    72A      0.739862  
      73A      0.748045    74A      0.761684    75A      0.767716  
      76A      0.776936    77A      0.793007    78A      0.815857  
      79A      0.816945    80A      0.817032    81A      0.847865  
      82A      0.848493    83A      0.872794    84A      0.878651  
      85A      0.882245    86A      0.882810    87A      0.904468  
      88A      0.913851    89A      0.922360    90A      0.926061  
      91A      0.944092    92A      0.952506    93A      0.953294  
      94A      0.964295    95A      0.965551    96A      0.990572  
      97A      1.007698    98A      1.009172    99A      1.037636  
     100A      1.043506   101A      1.053526   102A      1.060484  
     103A      1.064789   104A      1.098124   105A      1.101981  
     106A      1.108487   107A      1.117030   108A      1.125178  
     109A      1.144987   110A      1.176686   111A      1.187820  
     112A      1.190588   113A      1.204031   114A      1.205866  
     115A      1.225359   116A      1.237546   117A      1.253883  
     118A      1.264388   119A      1.279545   120A      1.284382  
     121A      1.296928   122A      1.329173   123A      1.359391  
     124A      1.364743   125A      1.397126   126A      1.411918  
     127A      1.414474   128A      1.437699   129A      1.448097  
     130A      1.513938   131A      1.519447   132A      1.524379  
     133A      1.535416   134A      1.585905   135A      1.610755  
     136A      1.637192   137A      1.683277   138A      1.690100  
     139A      1.691892   140A      1.737218   141A      1.776924  
     142A      1.780940   143A      1.783096   144A      1.817349  
     145A      1.820067   146A      1.855963   147A      1.855996  
     148A      1.865490   149A      1.880710   150A      1.890571  
     151A      1.928011   152A      1.941193   153A      1.944266  
     154A      1.949777   155A      1.981591   156A      2.002381  
     157A      2.013031   158A      2.020855   159A      2.037439  
     160A      2.070508   161A      2.071831   162A      2.074937  
     163A      2.102117   164A      2.116864   165A      2.117784  
     166A      2.132053   167A      2.142336   168A      2.185319  
     169A      2.187532   170A      2.213142   171A      2.218557  
     172A      2.222617   173A      2.227816   174A      2.242791  
     175A      2.247355   176A      2.266057   177A      2.276725  
     178A      2.279693   179A      2.295019   180A      2.318010  
     181A      2.321576   182A      2.346684   183A      2.355482  
     184A      2.355713   185A      2.389920   186A      2.397758  
     187A      2.400219   188A      2.403236   189A      2.435903  
     190A      2.449993   191A      2.455209   192A      2.457035  
     193A      2.463055   194A      2.472361   195A      2.472401  
     196A      2.477364   197A      2.495469   198A      2.498585  
     199A      2.538960   200A      2.542167   201A      2.565073  
     202A      2.580245   203A      2.592303   204A      2.630560  
     205A      2.638608   206A      2.661399   207A      2.668967  
     208A      2.674862   209A      2.700139   210A      2.703907  
     211A      2.724229   212A      2.742480   213A      2.771821  
     214A      2.774512   215A      2.775615   216A      2.783010  
     217A      2.788245   218A      2.806220   219A      2.811716  
     220A      2.846300   221A      2.849277   222A      2.857860  
     223A      2.870852   224A      2.888250   225A      2.917789  
     226A      2.918032   227A      2.924123   228A      2.940305  
     229A      2.958951   230A      2.962405   231A      2.966274  
     232A      3.009780   233A      3.049156   234A      3.053491  
     235A      3.067337   236A      3.071337   237A      3.091044  
     238A      3.123636   239A      3.141134   240A      3.154922  
     241A      3.195045   242A      3.225740   243A      3.264327  
     244A      3.282445   245A      3.307403   246A      3.334550  
     247A      3.336128   248A      3.340812   249A      3.379073  
     250A      3.391170   251A      3.399669   252A      3.452159  
     253A      3.489403   254A      3.494678   255A      3.579507  
     256A      3.589157   257A      3.608418   258A      3.625736  
     259A      3.640702   260A      3.645533   261A      3.653288  
     262A      3.670335   263A      3.695140   264A      3.716771  
     265A      3.725108   266A      3.752956   267A      3.787420  
     268A      3.824278   269A      3.838070   270A      3.853428  
     271A      3.879707   272A      3.884097   273A      3.903059  
     274A      3.966468   275A      3.978378   276A      3.979916  
     277A      4.000693   278A      4.061002   279A      4.064836  
     280A      4.131928   281A      4.198762   282A      4.216219  
     283A      4.221493   284A      4.224621   285A      4.268967  
     286A      4.317156   287A      4.347900   288A      4.375947  
     289A      4.438507   290A      4.442633   291A      4.478351  
     292A      4.522281   293A      4.525168   294A      4.551870  
     295A      4.561913   296A      4.574014   297A      4.575090  
     298A      4.577616   299A      4.578261   300A      4.585256  
     301A      4.708408   302A      4.770895   303A      4.827144  
     304A      4.862967   305A      4.873984   306A      4.884728  
     307A      4.985708   308A      5.026834   309A      5.059365  
     310A      5.116798   311A      5.157624   312A      5.194353  
     313A      5.198776   314A      5.246208   315A      5.248308  
     316A      5.280925   317A      5.284734   318A      5.406012  
     319A      5.416175   320A      5.416951   321A      5.427549  
     322A      5.440262   323A      5.466204   324A      5.478136  
     325A      5.519383   326A      5.566541   327A      5.591060  
     328A      5.615655   329A      5.651937   330A      5.667008  
     331A      5.694003   332A      5.697589   333A      5.706113  
     334A      5.780424   335A      5.781971   336A      5.805008  
     337A      5.811722   338A      5.819299   339A      5.840568  
     340A      5.841953   341A      5.850221   342A      5.862240  
     343A      5.863745   344A      5.867482   345A      5.876860  
     346A      5.892802   347A      5.908246   348A      5.921763  
     349A      5.927126   350A      5.976934   351A      6.017933  
     352A      6.046385   353A      6.053397   354A      6.058220  
     355A      6.074398   356A      6.114987   357A      6.124830  
     358A      6.149630   359A      6.192835   360A      6.208820  
     361A      6.211364   362A      6.227630   363A      6.257542  
     364A      6.274943   365A      6.323115   366A      6.323476  
     367A      6.331726   368A      6.356086   369A      6.362917  
     370A      6.371708   371A      6.377723   372A      6.398048  
     373A      6.434934   374A      6.437280   375A      6.438482  
     376A      6.449704   377A      6.462838   378A      6.468149  
     379A      6.496036   380A      6.498015   381A      6.509548  
     382A      6.516971   383A      6.522107   384A      6.543896  
     385A      6.546461   386A      6.550230   387A      6.573581  
     388A      6.587562   389A      6.607910   390A      6.632574  
     391A      6.635127   392A      6.655633   393A      6.663078  
     394A      6.669051   395A      6.677658   396A      6.696335  
     397A      6.698859   398A      6.700268   399A      6.745553  
     400A      6.767579   401A      6.810167   402A      6.820382  
     403A      6.830324   404A      6.860013   405A      6.861900  
     406A      6.886794   407A      6.920040   408A      6.921521  
     409A      6.924427   410A      6.962376   411A      6.999401  
     412A      7.031159   413A      7.043023   414A      7.058357  
     415A      7.072482   416A      7.075054   417A      7.108229  
     418A      7.113091   419A      7.165299   420A      7.171243  
     421A      7.195811   422A      7.200826   423A      7.310582  
     424A      7.319429   425A      7.376447   426A      7.382892  
     427A      7.384567   428A      7.403521   429A      7.436068  
     430A      7.478549   431A      7.491193   432A      7.499825  
     433A      7.525540   434A      7.569962   435A      7.581002  
     436A      7.585155   437A      7.605160   438A      7.645947  
     439A      7.757058   440A      7.800813   441A      7.804228  
     442A      7.814535   443A      7.834746   444A      7.859451  
     445A      7.881983   446A      7.917790   447A      7.923093  
     448A      7.929406   449A      7.937405   450A      7.986043  
     451A      8.006716   452A      8.015965   453A      8.045995  
     454A      8.064906   455A      8.125634   456A      8.129224  
     457A      8.147078   458A      8.187192   459A      8.188982  
     460A      8.192725   461A      8.244920   462A      8.247670  
     463A      8.301329   464A      8.319864   465A      8.325159  
     466A      8.364701   467A      8.371036   468A      8.394580  
     469A      8.399746   470A      8.441812   471A      8.452689  
     472A      8.508884   473A      8.518350   474A      8.519849  
     475A      8.531439   476A      8.558685   477A      8.590805  
     478A      8.627547   479A      8.631871   480A      8.642135  
     481A      8.704596   482A      8.715611   483A      8.734497  
     484A      8.736551   485A      8.763509   486A      8.774741  
     487A      8.800817   488A      8.803544   489A      8.854433  
     490A      8.858280   491A      8.873506   492A      8.887060  
     493A      8.888097   494A      8.893227   495A      8.916758  
     496A      8.944611   497A      8.946652   498A      9.002726  
     499A      9.017435   500A      9.054167   501A      9.097107  
     502A      9.142920   503A      9.167137   504A      9.168835  
     505A      9.176138   506A      9.211028   507A      9.236113  
     508A      9.260175   509A      9.333154   510A      9.402232  
     511A      9.424443   512A      9.533841   513A      9.589494  
     514A      9.648544   515A      9.699557   516A      9.727948  
     517A      9.807353   518A      9.814246   519A      9.892289  
     520A      9.906215   521A      9.940552   522A      9.991281  
     523A     10.021867   524A     10.023637   525A     10.125122  
     526A     10.147829   527A     10.169910   528A     10.198443  
     529A     10.208446   530A     10.212964   531A     10.256367  
     532A     10.278137   533A     10.382508   534A     10.402170  
     535A     10.443632   536A     10.479475   537A     10.548815  
     538A     10.610270   539A     10.618638   540A     10.663489  
     541A     10.722290   542A     10.745515   543A     10.770850  
     544A     10.933635   545A     10.942987   546A     11.041452  
     547A     11.060468   548A     11.209746   549A     11.215749  
     550A     11.221167   551A     11.389923   552A     11.496083  
     553A     11.724259   554A     12.132740   555A     12.354508  
     556A     12.504936   557A     12.597975   558A     12.847629  
     559A     12.910705   560A     13.194589   561A     13.229952  
     562A     13.440376   563A     13.682811   564A     13.878230  
     565A     15.633289   566A     21.741800   567A     21.756831  
     568A     21.769199   569A     21.769272   570A     21.909231  
     571A     21.956598   572A     22.080181   573A     22.793135  
     574A     29.012220   575A     29.506904   576A     29.685055  
     577A     30.029339   578A     30.225982   579A     35.905333  
     580A     39.023646   581A     85.748993   582A    118.211173  
     583A    118.211981   584A    118.260561   585A    149.584009  
     586A    150.063355   587A    150.221210   588A    150.565173  
     589A    150.779865   590A    200.164267   591A    234.248938  
     592A   1052.264297  

    Final Occupation by Irrep:
              A 
    DOCC [    21 ]
    NA   [    21 ]
    NB   [    21 ]

  @DF-RHF Final Energy:  -246.79525710959751

   => Energetics <=

    Nuclear Repulsion Energy =            206.9828667435982652
    One-Electron Energy =                -742.8011944080933517
    Two-Electron Energy =                 289.0230705548975720
    Total Energy =                       -246.7952571095975145

Computation Completed


Properties will be evaluated at   0.000000,   0.000000,   0.000000 [a0]

Properties computed using the SCF density matrix


 Multipole Moments:

 ------------------------------------------------------------------------------------
     Multipole            Electronic (a.u.)      Nuclear  (a.u.)        Total (a.u.)
 ------------------------------------------------------------------------------------

 L = 1.  Multiply by 2.5417464519 to convert [e a0] to [Debye]
 Dipole X            :          0.0000000           -0.0000000            0.0000000
 Dipole Y            :         -0.0000000           -0.0000000           -0.0000000
 Dipole Z            :        100.0585846         -100.9459880           -0.8874034
 Magnitude           :                                                    0.8874034

 ------------------------------------------------------------------------------------

*** tstop() called on cmpsrv002 at Thu Sep 19 15:10:03 2024
Module time:
	user time   =      83.54 seconds =       1.39 minutes
	system time =       4.34 seconds =       0.07 minutes
	total time  =        927 seconds =      15.45 minutes
Total time:
	user time   =     177.84 seconds =       2.96 minutes
	system time =      26.25 seconds =       0.44 minutes
	total time  =       3235 seconds =      53.92 minutes

         ---------------------------------------------------------
                        SAPT(DFT): delta HF Segment                

                   by Daniel G. A. Smith and Rob Parrish           
         ---------------------------------------------------------


  ==> Preparing SAPT Data Cache <== 

  ==> DiskDFJK: Density-Fitted J/K Matrices <==

    J tasked:                  Yes
    K tasked:                  Yes
    wK tasked:                  No
    OpenMP threads:              4
    Integrals threads:           4
    Memory [MiB]:             5722
    Algorithm:                Core
    Integral Cache:           SAVE
    Schwarz Cutoff:          1E-12
    Fitting Condition:       1E-10

   => Auxiliary Basis Set <=

  Basis Set: (THIS_BASIS AUX)
    Blend: DEF2-UNIVERSAL-JKFIT
    Number of shells: 224
    Number of basis functions: 688
    Number of Cartesian functions: 813
    Spherical Harmonics?: true
    Max angular momentum: 4


  ==> E10 Electostatics <== 

    Elst10,r                        -81.30680784 [mEh]

  ==> E10 Exchange <== 

    Exch10(S^2)                     145.31511965 [mEh]
    Exch10                          160.53477470 [mEh]

  ==> E20 Induction <== 

   => Uncoupled Induction <= 

    Ind20,u (A<-B)                  -36.34052337 [mEh]
    Ind20,u (A->B)                  -45.59826056 [mEh]
    Ind20,u                         -81.93878392 [mEh]
    Exch-Ind20,u (A<-B)              27.39405511 [mEh]
    Exch-Ind20,u (A->B)              15.08552971 [mEh]
    Exch-Ind20,u                     42.47958483 [mEh]
    Exch-Ind20,u (A<-B) (S^inf)      34.11723979 [mEh]
    Exch-Ind20,u (A->B) (S^inf)      19.98916452 [mEh]
    Exch-Ind20,u (S^inf)             54.10640431 [mEh]

   => Coupled Induction <= 

   ---------------------------------------------------
              SAPT Coupled Induction Solver           
   ---------------------------------------------------
    Maxiter             =          20
    Convergence         =   1.000E-06
   ---------------------------------------------------
     Iter       (A<-B)           (B->A)      Time [s]
   ---------------------------------------------------
    Guess    1.234880e-01     1.737887e-01          6
        1    3.780333e-02     8.712796e-02         13
        2    9.087707e-03     2.148013e-02         20
        3    1.765150e-03     9.486074e-03         32
        4    3.818802e-04     4.197847e-03         40
        5    1.453552e-04     1.906427e-03         46
        6    4.502164e-05     6.213971e-04         53
        7    6.917470e-06     2.001452e-04         60
        8    4.511291e-07*    4.028222e-05         66
        9    4.511291e-07*    1.100679e-05         69
       10    4.511291e-07*    3.507653e-06         72
       11    4.511291e-07*    9.612885e-07*        74
   ---------------------------------------------------

    Ind20,r (A<-B)                  -43.83076163 [mEh]
    Ind20,r (A->B)                  -56.95158336 [mEh]
    Ind20,r                        -100.78234499 [mEh]
    Exch-Ind20,r (A<-B)              33.94138944 [mEh]
    Exch-Ind20,r (A->B)              21.79080679 [mEh]
    Exch-Ind20,r                     55.73219623 [mEh]
    Exch-Ind20,r (A<-B) (S^inf)      42.54929750 [mEh]
    Exch-Ind20,r (A->B) (S^inf)      29.14587105 [mEh]
    Exch-Ind20,r (S^inf)             71.69516854 [mEh]

   Partial SAPT(HF) Results, to compute Delta HF (dHF)
  ---------------------------------------------------------------------------------------------------------
    Electrostatics                  -81.30680784 [mEh]    -51.02079220 [kcal/mol]   -213.47099456 [kJ/mol]
      Elst10,r                      -81.30680784 [mEh]    -51.02079220 [kcal/mol]   -213.47099456 [kJ/mol]

    Exchange                        160.53477470 [mEh]    100.73709199 [kcal/mol]    421.48399290 [kJ/mol]
      Exch10                        160.53477470 [mEh]    100.73709199 [kcal/mol]    421.48399290 [kJ/mol]
      Exch10(S^2)                   145.31511965 [mEh]     91.18661426 [kcal/mol]    381.52479407 [kJ/mol]

    Induction (no dHF)              -45.05014876 [mEh]    -28.26939514 [kcal/mol]   -118.27914927 [kJ/mol]
      Ind20,r                      -100.78234499 [mEh]    -63.24187627 [kcal/mol]   -264.60401032 [kJ/mol]
      Exch-Ind20,r                   55.73219623 [mEh]     34.97248113 [kcal/mol]    146.32486105 [kJ/mol]
      Induction (A<-B) (no dHF)      -9.88937219 [mEh]     -6.20567474 [kcal/mol]    -25.96454311 [kJ/mol]
      Induction (A->B) (no dHF)     -35.16077657 [mEh]    -22.06372040 [kcal/mol]    -92.31460616 [kJ/mol]

    Subtotal SAPT(HF)                34.17781810 [mEh]     21.44690465 [kcal/mol]     89.73384907 [kJ/mol]
    Total HF                          0.83993777 [mEh]      0.52706891 [kcal/mol]      2.20525630 [kJ/mol]
    Delta HF                        -33.33788034 [mEh]    -20.91983575 [kcal/mol]    -87.52859277 [kJ/mol]
  ---------------------------------------------------------------------------------------------------------
   Partial SAPT(HF) Results, alternate SAPT0-like display
  ---------------------------------------------------------------------------------------------------------
    Induction                       -78.38802910 [mEh]    -49.18923089 [kcal/mol]   -205.80774204 [kJ/mol]
      Ind20,r                      -100.78234499 [mEh]    -63.24187627 [kcal/mol]   -264.60401032 [kJ/mol]
      Exch-Ind20,r                   55.73219623 [mEh]     34.97248113 [kcal/mol]    146.32486105 [kJ/mol]
      delta HF,r (2)                -33.33788034 [mEh]    -20.91983575 [kcal/mol]    -87.52859277 [kJ/mol]
      Induction (A<-B)              -17.20767670 [mEh]    -10.79798015 [kcal/mol]    -45.17874895 [kJ/mol]
      Induction (A->B)              -61.18035240 [mEh]    -38.39125074 [kcal/mol]   -160.62899310 [kJ/mol]
  ---------------------------------------------------------------------------------------------------------
   => Libint2 <=

    Primary   basis highest AM E, G, H:  6, 6, 3
    Auxiliary basis highest AM E, G, H:  7, 7, 4
    Onebody   basis highest AM E, G, H:  -, -, -
    Solid Harmonics ordering:            Gaussian

*** tstart() called on cmpsrv002
*** at Thu Sep 19 15:11:56 2024

   => Loading Basis Set <=

    Name: THIS_BASIS
    Role: ORBITAL
    Keyword: BASIS
    atoms 1, 3-4, 11-13 entry H          line    15 file /home/vance/anaconda3/envs/p4env/share/psi4/basis/def2-qzvp.gbs 
    atoms 2             entry CL         line   809 file /home/vance/anaconda3/envs/p4env/share/psi4/basis/def2-qzvp.gbs 
    atoms 5-7, 9-10     entry C          line   194 file /home/vance/anaconda3/envs/p4env/share/psi4/basis/def2-qzvp.gbs 
    atoms 8             entry N          line   242 file /home/vance/anaconda3/envs/p4env/share/psi4/basis/def2-qzvp.gbs 


         ---------------------------------------------------------
                          SAPT(DFT): DFT Monomer A                 
         ---------------------------------------------------------
                                   SCF
               by Justin Turney, Rob Parrish, Andy Simmonett
                          and Daniel G. A. Smith
                              RKS Reference
                        4 Threads,   7629 MiB Core
         ---------------------------------------------------------

  ==> Geometry <==

    Molecular point group: c1
    Full point group: C2v

    Geometry (in Angstrom), charge = 0, multiplicity = 1:

       Center              X                  Y                   Z               Mass       
    ------------   -----------------  -----------------  -----------------  -----------------
         H            0.000000000000     0.000000000000     1.405224134281     1.007825032230
         CL           0.000000000000     0.000000000000     2.772684134281    34.968852682000
      Gh(H)           0.000000000000    -2.147710000000    -2.448375865719     1.007825032230
      Gh(H)           0.000000000000    -2.051420000000     0.045154134281     1.007825032230
      Gh(C)           0.000000000000     0.000000000000    -2.642175865719    12.000000000000
      Gh(C)           0.000000000000    -1.196400000000    -1.938055865719    12.000000000000
      Gh(C)           0.000000000000    -1.149310000000    -0.552125865719    12.000000000000
      Gh(N)           0.000000000000     0.000000000000     0.120874134281    14.003074004430
      Gh(C)          -0.000000000000     1.149310000000    -0.552125865719    12.000000000000
      Gh(C)          -0.000000000000     1.196400000000    -1.938055865719    12.000000000000
      Gh(H)          -0.000000000000     2.051420000000     0.045154134281     1.007825032230
      Gh(H)          -0.000000000000     2.147710000000    -2.448375865719     1.007825032230
      Gh(H)           0.000000000000     0.000000000000    -3.722755865719     1.007825032230

  Running in c1 symmetry.

  Rotational constants: A =      0.20108  B =      0.03524  C =      0.02999 [cm^-1]
  Rotational constants: A =   6028.26605  B =   1056.57839  C =    899.00853 [MHz]
  Nuclear repulsion =    6.578629416136487

  Charge       = 0
  Multiplicity = 1
  Electrons    = 18
  Nalpha       = 9
  Nbeta        = 9

  ==> Algorithm <==

  SCF Algorithm Type is DF.
  DIIS enabled.
  MOM disabled.
  Fractional occupation disabled.
  Guess Type is SAD.
  Energy threshold   = 1.00e-08
  Density threshold  = 1.00e-08
  Integral threshold = 1.00e-12

  ==> Primary Basis <==

  Basis Set: THIS_BASIS
    Blend: DEF2-QZVP
    Number of shells: 184
    Number of basis functions: 592
    Number of Cartesian functions: 728
    Spherical Harmonics?: true
    Max angular momentum: 4

  ==> DFT Potential <==

   => LibXC <=

    Version 6.2.2
[...]
     187A      2.115991   188A      2.116712   189A      2.123425  
     190A      2.155358   191A      2.178245   192A      2.181863  
     193A      2.184989   194A      2.191583   195A      2.215506  
     196A      2.238054   197A      2.241377   198A      2.269936  
     199A      2.277542   200A      2.298668   201A      2.306692  
     202A      2.311146   203A      2.318763   204A      2.350255  
     205A      2.357067   206A      2.359937   207A      2.360128  
     208A      2.382213   209A      2.402015   210A      2.409999  
     211A      2.412195   212A      2.460959   213A      2.461502  
     214A      2.465652   215A      2.471009   216A      2.479526  
     217A      2.480096   218A      2.486836   219A      2.507478  
     220A      2.539371   221A      2.548902   222A      2.551465  
     223A      2.552382   224A      2.578692   225A      2.587229  
     226A      2.601675   227A      2.605582   228A      2.624877  
     229A      2.637307   230A      2.645386   231A      2.669201  
     232A      2.684200   233A      2.720558   234A      2.735843  
     235A      2.741380   236A      2.751690   237A      2.762469  
     238A      2.790245   239A      2.838343   240A      2.849153  
     241A      2.890357   242A      2.901899   243A      2.926391  
     244A      2.940790   245A      2.977368   246A      2.980846  
     247A      3.016237   248A      3.036736   249A      3.046348  
     250A      3.048487   251A      3.058617   252A      3.132220  
     253A      3.136303   254A      3.178999   255A      3.226918  
     256A      3.247153   257A      3.248090   258A      3.253423  
     259A      3.297335   260A      3.304715   261A      3.309642  
     262A      3.316571   263A      3.319219   264A      3.361021  
     265A      3.366438   266A      3.375799   267A      3.429265  
     268A      3.444972   269A      3.471652   270A      3.478937  
     271A      3.516578   272A      3.521345   273A      3.570799  
     274A      3.577472   275A      3.607719   276A      3.608699  
     277A      3.621352   278A      3.668581   279A      3.670396  
     280A      3.738812   281A      3.803907   282A      3.820391  
     283A      3.838661   284A      3.846872   285A      3.882902  
     286A      3.923560   287A      3.962636   288A      3.979409  
     289A      4.046692   290A      4.059433   291A      4.093393  
     292A      4.118043   293A      4.125210   294A      4.169956  
     295A      4.179924   296A      4.271153   297A      4.315696  
     298A      4.427900   299A      4.431855   300A      4.433300  
     301A      4.441195   302A      4.446273   303A      4.446550  
     304A      4.491999   305A      4.547264   306A      4.611260  
     307A      4.617231   308A      4.623434   309A      4.659255  
     310A      4.692776   311A      4.740091   312A      4.772344  
     313A      4.818672   314A      4.837910   315A      4.842249  
     316A      4.853270   317A      4.856298   318A      4.984255  
     319A      4.985924   320A      4.989144   321A      4.999940  
     322A      5.047982   323A      5.117423   324A      5.136585  
     325A      5.162592   326A      5.181936   327A      5.195510  
     328A      5.258395   329A      5.279186   330A      5.279622  
     331A      5.282906   332A      5.325387   333A      5.326909  
     334A      5.349800   335A      5.351115   336A      5.379819  
     337A      5.403057   338A      5.427962   339A      5.451992  
     340A      5.463920   341A      5.465519   342A      5.476499  
     343A      5.554460   344A      5.568490   345A      5.582216  
     346A      5.599017   347A      5.615077   348A      5.634393  
     349A      5.641188   350A      5.665492   351A      5.703559  
     352A      5.712374   353A      5.712823   354A      5.716294  
     355A      5.732306   356A      5.762975   357A      5.766151  
     358A      5.767627   359A      5.771234   360A      5.786671  
     361A      5.793491   362A      5.831933   363A      5.862250  
     364A      5.879702   365A      5.923305   366A      5.926556  
     367A      5.935174   368A      5.942610   369A      5.954648  
     370A      5.993245   371A      5.994815   372A      5.996516  
     373A      6.011358   374A      6.030722   375A      6.035503  
     376A      6.058311   377A      6.066607   378A      6.082443  
     379A      6.083358   380A      6.104573   381A      6.106098  
     382A      6.121831   383A      6.125342   384A      6.142039  
     385A      6.185479   386A      6.196997   387A      6.201139  
     388A      6.210114   389A      6.214447   390A      6.215247  
     391A      6.222333   392A      6.243235   393A      6.247414  
     394A      6.264936   395A      6.292659   396A      6.305423  
     397A      6.308243   398A      6.309526   399A      6.347744  
     400A      6.366691   401A      6.404726   402A      6.418817  
     403A      6.425740   404A      6.428636   405A      6.465578  
     406A      6.481795   407A      6.483763   408A      6.498394  
     409A      6.577494   410A      6.579169   411A      6.579593  
     412A      6.591920   413A      6.597737   414A      6.623822  
     415A      6.630358   416A      6.651290   417A      6.656504  
     418A      6.693300   419A      6.712017   420A      6.732245  
     421A      6.737531   422A      6.742252   423A      6.862410  
     424A      6.879802   425A      6.928914   426A      6.947220  
     427A      6.955538   428A      6.976402   429A      6.998511  
     430A      7.016092   431A      7.055885   432A      7.070660  
     433A      7.075578   434A      7.111781   435A      7.134675  
     436A      7.145102   437A      7.208323   438A      7.215368  
     439A      7.291621   440A      7.364412   441A      7.364654  
     442A      7.380483   443A      7.403741   444A      7.434922  
     445A      7.438796   446A      7.445605   447A      7.492945  
     448A      7.497658   449A      7.518377   450A      7.571248  
     451A      7.572336   452A      7.588210   453A      7.626757  
     454A      7.629362   455A      7.660436   456A      7.679542  
     457A      7.702380   458A      7.746143   459A      7.755285  
     460A      7.764982   461A      7.814544   462A      7.839106  
     463A      7.857782   464A      7.862997   465A      7.910845  
     466A      7.926174   467A      7.941410   468A      7.965036  
     469A      7.967876   470A      8.000959   471A      8.006819  
     472A      8.064584   473A      8.064625   474A      8.069711  
     475A      8.092285   476A      8.120443   477A      8.149404  
     478A      8.173150   479A      8.193023   480A      8.245529  
     481A      8.263553   482A      8.267602   483A      8.272562  
     484A      8.290388   485A      8.293731   486A      8.336550  
     487A      8.341860   488A      8.366934   489A      8.400478  
     490A      8.404169   491A      8.417135   492A      8.419070  
     493A      8.425061   494A      8.457190   495A      8.478252  
     496A      8.494150   497A      8.512824   498A      8.546194  
     499A      8.560107   500A      8.586015   501A      8.655506  
     502A      8.697667   503A      8.701433   504A      8.719351  
     505A      8.765929   506A      8.774645   507A      8.790829  
     508A      8.878593   509A      8.932419   510A      8.950702  
     511A      8.966335   512A      9.057149   513A      9.126162  
     514A      9.157846   515A      9.193306   516A      9.335283  
     517A      9.340450   518A      9.344979   519A      9.395490  
     520A      9.415000   521A      9.451904   522A      9.479965  
     523A      9.536742   524A      9.588851   525A      9.626445  
     526A      9.675494   527A      9.697010   528A      9.724952  
     529A      9.755248   530A      9.755462   531A      9.776613  
     532A      9.800368   533A      9.909227   534A      9.934591  
     535A      9.962810   536A     10.005462   537A     10.025612  
     538A     10.062563   539A     10.126109   540A     10.172229  
     541A     10.201173   542A     10.291769   543A     10.319766  
     544A     10.388071   545A     10.497457   546A     10.515217  
     547A     10.554392   548A     10.637422   549A     10.666012  
     550A     10.700274   551A     10.890586   552A     10.992358  
     553A     11.194261   554A     11.675579   555A     11.839752  
     556A     11.965524   557A     12.001752   558A     12.297143  
     559A     12.423783   560A     12.654015   561A     12.712885  
     562A     12.907086   563A     13.156700   564A     13.441611  
     565A     15.491781   566A     21.607890   567A     21.622738  
     568A     21.635098   569A     21.635238   570A     21.772707  
     571A     21.819911   572A     21.944679   573A     22.652195  
     574A     28.041857   575A     28.535840   576A     28.717479  
     577A     29.057848   578A     29.253186   579A     35.767933  
     580A     37.891194   581A     85.614608   582A    118.077695  
     583A    118.078471   584A    118.124605   585A    147.256223  
     586A    147.735242   587A    147.896070   588A    148.236275  
     589A    148.449540   590A    197.398372   591A    234.116261  
     592A   1052.133482  

    Final Occupation by Irrep:
              A 
    DOCC [    21 ]
    NA   [    21 ]
    NB   [    21 ]

  @DF-RKS Final Energy:  -248.09021920748481

   => Energetics <=

    Nuclear Repulsion Energy =            206.9828667435982652
    One-Electron Energy =                -743.5465775041108145
    Two-Electron Energy =                 315.5181820959076049
    DFT Exchange-Correlation Energy =     -27.0446905428798559
    Empirical Dispersion Energy =           0.0000000000000000
    VV10 Nonlocal Energy =                  0.0000000000000000
    Total Energy =                       -248.0902192074848074

Computation Completed


Properties will be evaluated at   0.000000,   0.000000,   0.000000 [a0]

Properties computed using the SCF density matrix


 Multipole Moments:

 ------------------------------------------------------------------------------------
     Multipole            Electronic (a.u.)      Nuclear  (a.u.)        Total (a.u.)
 ------------------------------------------------------------------------------------

 L = 1.  Multiply by 2.5417464519 to convert [e a0] to [Debye]
 Dipole X            :          0.0000000           -0.0000000            0.0000000
 Dipole Y            :         -0.0000000           -0.0000000           -0.0000000
 Dipole Z            :        100.0790146         -100.9459880           -0.8669734
 Magnitude           :                                                    0.8669734

 ------------------------------------------------------------------------------------

*** tstop() called on cmpsrv002 at Thu Sep 19 15:26:05 2024
Module time:
	user time   =     413.15 seconds =       6.89 minutes
	system time =       8.56 seconds =       0.14 minutes
	total time  =        398 seconds =       6.63 minutes
Total time:
	user time   =    1013.19 seconds =      16.89 minutes
	system time =      43.54 seconds =       0.73 minutes
	total time  =       4197 seconds =      69.95 minutes

         ---------------------------------------------------------
               SAPT(DFT): Intermolecular Interaction Segment       

                   by Daniel G. A. Smith and Rob Parrish           
         ---------------------------------------------------------

  ==> Algorithm <==

   SAPT DFT Functional             PBE0
   Monomer A GRAC Shift        0.116251
   Monomer B GRAC Shift        0.074627
   Delta HF                        True
   JK Algorithm                      DF

  ==> Preparing SAPT Data Cache <== 

  ==> DiskDFJK: Density-Fitted J/K Matrices <==

    J tasked:                  Yes
    K tasked:                  Yes
    wK tasked:                  No
    OpenMP threads:              4
    Integrals threads:           4
    Memory [MiB]:             2675
    Algorithm:                Core
    Integral Cache:           SAVE
    Schwarz Cutoff:          1E-12
    Fitting Condition:       1E-10

   => Auxiliary Basis Set <=

  Basis Set: (THIS_BASIS AUX)
    Blend: DEF2-UNIVERSAL-JKFIT
    Number of shells: 224
    Number of basis functions: 688
    Number of Cartesian functions: 813
    Spherical Harmonics?: true
    Max angular momentum: 4


  ==> E10 Electostatics <== 

    Elst10,r                        -78.40682384 [mEh]

  ==> E10 Exchange <== 

    Exch10(S^2)                     146.11854909 [mEh]
    Exch10                          161.36290874 [mEh]

  ==> E20 Induction <== 

   => Uncoupled Induction <= 

    Ind20,u (A<-B)                  -44.82530745 [mEh]
    Ind20,u (A->B)                  -61.52178214 [mEh]
    Ind20,u                        -106.34708959 [mEh]
    Exch-Ind20,u (A<-B)              35.38823732 [mEh]
    Exch-Ind20,u (A->B)              23.20931769 [mEh]
    Exch-Ind20,u                     58.59755501 [mEh]
    Exch-Ind20,u (A<-B) (S^inf)      44.16188567 [mEh]
    Exch-Ind20,u (A->B) (S^inf)      30.26542909 [mEh]
    Exch-Ind20,u (S^inf)             74.42731476 [mEh]

   => Coupled Induction <= 

   ---------------------------------------------------
              SAPT Coupled Induction Solver           
   ---------------------------------------------------
    Maxiter             =          20
    Convergence         =   1.000E-06
   ---------------------------------------------------
     Iter       (A<-B)           (B->A)      Time [s]
   ---------------------------------------------------
    Guess    1.165542e-01     2.325781e-01         40
        1    3.236673e-02     7.449346e-02         82
        2    5.728573e-03     2.420294e-02        122
        3    1.314687e-03     8.867428e-03        168
        4    2.811096e-04     1.741541e-03        223
        5    2.667604e-05     5.350477e-04        303
        6    1.848559e-06     9.728993e-05        380
        7    2.276144e-07*    1.738463e-05        435
        8    2.276144e-07*    4.191723e-06        476
        9    2.276144e-07*    1.589688e-06        509
       10    2.276144e-07*    3.380372e-07*       538
   ---------------------------------------------------

    Ind20,r (A<-B)                  -47.29867970 [mEh]
    Ind20,r (A->B)                  -63.36021178 [mEh]
    Ind20,r                        -110.65889149 [mEh]
    Exch-Ind20,r (A<-B)              36.94439009 [mEh]
    Exch-Ind20,r (A->B)              27.84357020 [mEh]
    Exch-Ind20,r                     64.78796029 [mEh]
    Exch-Ind20,r (A<-B) (S^inf)      46.13909817 [mEh]
    Exch-Ind20,r (A->B) (S^inf)      36.19121283 [mEh]
    Exch-Ind20,r (S^inf)             82.33031101 [mEh]
   => Loading Basis Set <=

    Name: (THIS_BASIS AUX)
    Role: RIFIT
    Keyword: DF_BASIS_MP2
    atoms 1, 3-4, 11-13 entry H          line    23 file /home/vance/anaconda3/envs/p4env/share/psi4/basis/def2-qzvp-ri.gbs 
    atoms 2             entry CL         line  1113 file /home/vance/anaconda3/envs/p4env/share/psi4/basis/def2-qzvp-ri.gbs 
    atoms 5-7, 9-10     entry C          line   269 file /home/vance/anaconda3/envs/p4env/share/psi4/basis/def2-qzvp-ri.gbs 
    atoms 8             entry N          line   337 file /home/vance/anaconda3/envs/p4env/share/psi4/basis/def2-qzvp-ri.gbs 



  ==> E20 Dispersion (CHF FDDS) <== 

   Legendre Points:          10
   Lambda Shift:          0.300
   Fxc Kernal:             ALDA
   (P|Fxc|Q) Thresh:  1.000e-06
  DFHelper Memory: AOs need 3.186 GiB; user supplied 5.960 GiB. 
  Using in-core AOs.

  ==> DFHelper <==
    NBF:                             592
    NAux:                           1349
    Schwarz Cutoff:                1E-12
    Mask sparsity (%):                13
    DFH Avail. Memory [GiB]:       5.960
    OpenMP threads:                    4
    Algorithm:                    DIRECT
    AO Core:                        True
    MO Core:                       False
    Hold Metric:                   False
    Metric Power:                  0.000
    Fitting Condition:             1E-12
    Q Shell Max:                      11


  DFHelper Memory: AOs need 3.633 GiB; user supplied 5.960 GiB. 
  Using in-core AOs.


   => Time Integration <= 

       Omega       Weight       Disp20,u         Disp20   time [s]
   2.269e+01    6.667e-02      1.098e-03      1.036e-03          4
   4.147e+00    1.495e-01      1.505e-02      1.369e-02          8
   1.572e+00    2.191e-01      3.815e-02      3.164e-02         13
   7.589e-01    2.693e-01      5.713e-02      4.128e-02         17
   4.049e-01    2.955e-01      6.106e-02      3.830e-02         21
   2.223e-01    2.955e-01      5.099e-02      2.885e-02         25
   1.186e-01    2.693e-01      3.615e-02      1.932e-02         29
   5.727e-02    2.191e-01      2.300e-02      1.201e-02         33
   2.170e-02    1.495e-01      1.298e-02      6.732e-03         36
   3.966e-03    6.667e-02      5.185e-03      2.687e-03         40

    Disp20,u                        -47.87215386 [mEh]
    Disp20                          -31.12347957 [mEh]

  ==> E20 Dispersion (MP2) <== 


    Disp20 (MP2)                    -47.66123431 [mEh]
    Exch-Disp20,u                     9.12878077 [mEh]
    Scaling Scheme                    FIXED
    Scaling Factor                    0.770
    Est. Exch-Disp20,r                7.02916120 [mEh]

   SAPT(DFT) Results
  ---------------------------------------------------------------------------------------------------------
    Electrostatics                  -78.40682384 [mEh]    -49.20102477 [kcal/mol]   -205.85708763 [kJ/mol]
      Elst1,r                       -78.40682384 [mEh]    -49.20102477 [kcal/mol]   -205.85708763 [kJ/mol]

    Exchange                        161.36290874 [mEh]    101.25675395 [kcal/mol]    423.65825853 [kJ/mol]
      Exch1                         161.36290874 [mEh]    101.25675395 [kcal/mol]    423.65825853 [kJ/mol]
      Exch1(S^2)                    146.11854909 [mEh]     91.69077385 [kcal/mol]    383.63419779 [kJ/mol]

    Induction                       -79.20881154 [mEh]    -49.70427965 [kcal/mol]   -207.96270604 [kJ/mol]
      Ind2,r                       -110.65889149 [mEh]    -69.43950277 [kcal/mol]   -290.53487957 [kJ/mol]
      Exch-Ind2,r                    64.78796029 [mEh]     40.65505887 [kcal/mol]    170.10076631 [kJ/mol]
      Induction (A<-B)              -10.35428961 [mEh]     -6.49741483 [kcal/mol]    -27.18518363 [kJ/mol]
      Induction (A->B)              -35.51664158 [mEh]    -22.28702907 [kcal/mol]    -93.24892963 [kJ/mol]
      delta HF,r (2)                -33.33788034 [mEh]    -20.91983575 [kcal/mol]    -87.52859278 [kJ/mol]

    Dispersion                      -24.09428160 [mEh]    -15.11938997 [kcal/mol]    -63.25952762 [kJ/mol]
      Disp2,r                       -31.12344279 [mEh]    -19.53025521 [kcal/mol]    -81.71458779 [kJ/mol]
      Disp2,u                       -47.66123431 [mEh]    -29.90787606 [kcal/mol]   -125.13455345 [kJ/mol]
      Est. Exch-Disp2,r               7.02916120 [mEh]      4.41086524 [kcal/mol]     18.45506018 [kJ/mol]
      Exch-Disp2,u                    9.12878077 [mEh]      5.72839642 [kcal/mol]     23.96761062 [kJ/mol]

    Total SAPT(DFT)                 -20.34700823 [mEh]    -12.76794043 [kcal/mol]    -53.42106275 [kJ/mol]
  ---------------------------------------------------------------------------------------------------------

*** tstop() called on cmpsrv002 at Thu Sep 19 16:40:42 2024
Module time:
	user time   =    2858.68 seconds =      47.64 minutes
	system time =      72.64 seconds =       1.21 minutes
	total time  =       4878 seconds =      81.30 minutes
Total time:
	user time   =    3425.39 seconds =      57.09 minutes
	system time =     150.31 seconds =       2.51 minutes
	total time  =       8679 seconds =     144.65 minutes

    Psi4 stopped on: Thursday, 19 September 2024 04:40PM
    Psi4 wall time for execution: 2:24:39.80

*** Psi4 exiting successfully. Buy a developer a beer!
