
    -----------------------------------------------------------------------
          Psi4: An Open-Source Ab Initio Electronic Structure Package
                               Psi4 1.9.1 release

                         Git: Rev {} zzzzzzz 


    D. G. A. Smith, L. A. Burns, A. C. Simmonett, R. M. Parrish,
    M. C. Schieber, R. Galvelis, P. Kraus, H. Kruse, R. Di Remigio,
    A. Alenaizan, A. M. James, S. Lehtola, J. P. Misiewicz, M. Scheurer,
    R. A. Shaw, J. B. Schriber, Y. Xie, Z. L. Glick, D. A. Sirianni,
    J. S. O'Brien, J. M. Waldrop, A. Kumar, E. G. Hohenstein,
    B. P. Pritchard, B. R. Brooks, H. F. Schaefer III, A. Yu. Sokolov,
    K. Patkowski, A. E. DePrince III, U. Bozkaya, R. A. King,
    F. A. Evangelista, J. M. Turney, T. D. Crawford, C. D. Sherrill,
    J. Chem. Phys. 152(18) 184108 (2020). https://doi.org/10.1063/5.0006002

                            Additional Code Authors
    E. T. Seidl, C. L. Janssen, E. F. Valeev, M. L. Leininger,
    J. F. Gonthier, R. M. Richard, H. R. McAlexander, M. Saitow, X. Wang,
    P. Verma, M. H. Lechner, A. Jiang, S. Behnle, A. G. Heide,
    M. F. Herbst, and D. L. Poole

             Previous Authors, Complete List of Code Contributors,
                       and Citations for Specific Modules
    https://github.com/psi4/psi4/blob/master/codemeta.json
    https://github.com/psi4/psi4/graphs/contributors
    http://psicode.org/psi4manual/master/introduction.html#citing-psifour

    -----------------------------------------------------------------------


    Psi4 started on: Thursday, 19 September 2024 02:16PM

    Process ID: 605874
    Host:       cmpsrv002
    PSIDATADIR: /home/vance/anaconda3/envs/p4env/share/psi4
    Memory:     500.0 MiB
    Threads:    8
    
  ==> Input File <==

--------------------------------------------------------------------------
#charge=0 charge_a=0 charge_b=0 selection_a=1-2 selection_b=3-6 scaling=1.0 benchmark_Eint=-9.905 benchmark_unit=kcal/mol group=XH-N
set_num_threads(4)
memory 8 GB
basis this_basis {
    assign    def2-qzvp
}

molecule {
     0 1
    --
     0 1
     H        0.00002       -0.93248        0.00000
    Br       -0.00001        0.58174        0.00000
    --
     0 1
     N        0.00003       -2.57859        0.00000
     H       -0.47435       -2.93106        0.82165
     H       -0.47435       -2.93106       -0.82165
     H        0.94878       -2.93106        0.00000
}

set {
    sapt_dft_functional     PBE0
    scf_type                DF
    freeze_core             true
    sapt_dft_grac_shift_a    0.106591
    sapt_dft_grac_shift_b    0.113162
    sapt_dft_do_hybrid      true
    do_ind_exch_sinf        true
    do_disp_exch_sinf       true
}

nrg = energy('sapt(DFT)')
--------------------------------------------------------------------------
  Threads set to 4 by Python driver.

  Memory set to   7.451 GiB by Python driver.

Scratch directory: /scratch2/vance/psi4/

*** tstart() called on cmpsrv002
*** at Thu Sep 19 14:16:09 2024

  SAPT does not make use of molecular symmetry, further calculations in C1 point group.

         ---------------------------------------------------------
                            SAPT(DFT) Procedure                    

                           by Daniel G. A. Smith                   
         ---------------------------------------------------------

Warning! The default value of SAPT_DFT_EXCH_DISP_SCALE_SCHEME has changed from DISP to FIXED. Please be careful comparing results with earlier versions. 

  ==> Algorithm <==

   SAPT DFT Functional             PBE0
   Monomer A GRAC Shift        0.106591
   Monomer B GRAC Shift        0.113162
   Delta HF                        True
   JK Algorithm                      DF

   Required computations:
     HF  (Dimer)
     HF  (Monomer A)
     HF  (Monomer B)
     DFT (Monomer A)
     DFT (Monomer B)

   => Libint2 <=

    Primary   basis highest AM E, G, H:  6, 6, 3
    Auxiliary basis highest AM E, G, H:  7, 7, 4
    Onebody   basis highest AM E, G, H:  -, -, -
    Solid Harmonics ordering:            Gaussian

*** tstart() called on cmpsrv002
*** at Thu Sep 19 14:16:09 2024

   => Loading Basis Set <=

    Name: THIS_BASIS
    Role: ORBITAL
    Keyword: BASIS
    atoms 1, 4-6 entry H          line    15 file /home/vance/anaconda3/envs/p4env/share/psi4/basis/def2-qzvp.gbs 
    atoms 2      entry BR         line  2253 file /home/vance/anaconda3/envs/p4env/share/psi4/basis/def2-qzvp.gbs 
    atoms 3      entry N          line   242 file /home/vance/anaconda3/envs/p4env/share/psi4/basis/def2-qzvp.gbs 


         ---------------------------------------------------------
                         SAPT(DFT): delta HF Dimer                 
         ---------------------------------------------------------
                                   SCF
               by Justin Turney, Rob Parrish, Andy Simmonett
                          and Daniel G. A. Smith
                              RHF Reference
                        4 Threads,   7629 MiB Core
         ---------------------------------------------------------

  ==> Geometry <==

    Molecular point group: c1
    Full point group: Cs

    Geometry (in Angstrom), charge = 0, multiplicity = 1:

       Center              X                  Y                   Z               Mass       
    ------------   -----------------  -----------------  -----------------  -----------------
         H            0.000022767418    -0.932480036259     0.000000000000     1.007825032230
         BR          -0.000007232582     0.581739963741     0.000000000000    78.918337600000
         N            0.000032767418    -2.578590036259     0.000000000000    14.003074004430
         H           -0.474347232582    -2.931060036259     0.821650000000     1.007825032230
         H           -0.474347232582    -2.931060036259    -0.821650000000     1.007825032230
         H            0.948782767418    -2.931060036259     0.000000000000     1.007825032230

  Running in c1 symmetry.

  Rotational constants: A =      6.19413  B =      0.11388  C =      0.11388 [cm^-1]
  Rotational constants: A = 185695.44926  B =   3414.07786  C =   3414.07743 [MHz]
  Nuclear repulsion =   83.439187997570045

  Charge       = 0
  Multiplicity = 1
  Electrons    = 46
  Nalpha       = 23
  Nbeta        = 23

  ==> Algorithm <==

  SCF Algorithm Type is DF.
  DIIS enabled.
  MOM disabled.
  Fractional occupation disabled.
  Guess Type is SAD.
  Energy threshold   = 1.00e-08
  Density threshold  = 1.00e-08
  Integral threshold = 1.00e-12

  ==> Primary Basis <==

  Basis Set: THIS_BASIS
    Blend: DEF2-QZVP
    Number of shells: 82
    Number of basis functions: 252
    Number of Cartesian functions: 303
    Spherical Harmonics?: true
    Max angular momentum: 4

   => Loading Basis Set <=

    Name: (THIS_BASIS AUX)
    Role: JKFIT
    Keyword: DF_BASIS_SCF
    atoms 1, 4-6 entry H          line    18 file /home/vance/anaconda3/envs/p4env/share/psi4/basis/def2-universal-jkfit.gbs 
    atoms 2      entry BR         line  3124 file /home/vance/anaconda3/envs/p4env/share/psi4/basis/def2-universal-jkfit.gbs 
    atoms 3      entry N          line   258 file /home/vance/anaconda3/envs/p4env/share/psi4/basis/def2-universal-jkfit.gbs 

  ==> Integral Setup <==

  ==> DiskDFJK: Density-Fitted J/K Matrices <==

    J tasked:                  Yes
    K tasked:                  Yes
    wK tasked:                  No
    OpenMP threads:              4
    Integrals threads:           4
    Memory [MiB]:             5722
    Algorithm:                Core
    Integral Cache:           SAVE
    Schwarz Cutoff:          1E-12
    Fitting Condition:       1E-10

   => Auxiliary Basis Set <=

  Basis Set: (THIS_BASIS AUX)
    Blend: DEF2-UNIVERSAL-JKFIT
    Number of shells: 109
    Number of basis functions: 415
    Number of Cartesian functions: 544
    Spherical Harmonics?: true
    Max angular momentum: 5

  Minimum eigenvalue in the overlap matrix is 1.0783672388E-04.
  Reciprocal condition number of the overlap matrix is 1.2760159736E-05.
    Using symmetric orthogonalization.

  ==> Pre-Iterations <==

  SCF Guess: Superposition of Atomic Densities via on-the-fly atomic UHF (no occupation information).

   -------------------------
    Irrep   Nso     Nmo    
   -------------------------
     A        252     252 
   -------------------------
    Total     252     252
   -------------------------

  ==> Iterations <==

                           Total Energy        Delta E     RMS |[F,P]|

   @DF-RHF iter SAD: -2626.95401005541589   -2.62695e+03   0.00000e+00 
   @DF-RHF iter   1: -2628.90859804556885   -1.95459e+00   7.03820e-03 ADIIS/DIIS
   @DF-RHF iter   2: -2629.15430619744757   -2.45708e-01   4.64293e-03 ADIIS/DIIS
   @DF-RHF iter   3: -2629.27783706492573   -1.23531e-01   1.64349e-04 ADIIS/DIIS
   @DF-RHF iter   4: -2629.27881735920528   -9.80294e-04   5.49156e-05 DIIS
   @DF-RHF iter   5: -2629.27896121717777   -1.43858e-04   1.84466e-05 DIIS
   @DF-RHF iter   6: -2629.27898041580920   -1.91986e-05   6.13954e-06 DIIS
   @DF-RHF iter   7: -2629.27898254156344   -2.12575e-06   1.23270e-06 DIIS
   @DF-RHF iter   8: -2629.27898269556954   -1.54006e-07   4.19367e-07 DIIS
   @DF-RHF iter   9: -2629.27898270814694   -1.25774e-08   7.37188e-08 DIIS
   @DF-RHF iter  10: -2629.27898270858805   -4.41105e-10   1.14069e-08 DIIS
   @DF-RHF iter  11: -2629.27898270859987   -1.18234e-11   2.57736e-09 DIIS
  Energy and wave function converged.


  ==> Post-Iterations <==

    Orbital Energies [Eh]
    ---------------------

    Doubly Occupied:                                                      

       1A   -489.976760     2A    -65.117325     3A    -58.472434  
       4A    -58.471707     5A    -58.471707     6A    -15.595766  
       7A     -9.790003     8A     -7.400050     9A     -7.396103  
      10A     -7.396103    11A     -3.142987    12A     -3.140564  
      13A     -3.140564    14A     -3.135603    15A     -3.135603  
      16A     -1.200664    17A     -0.971764    18A     -0.687628  
      19A     -0.687625    20A     -0.587421    21A     -0.424925  
      22A     -0.385195    23A     -0.385195  

    Virtual:                                                              

      24A      0.081889    25A      0.136214    26A      0.136214  
      27A      0.184410    28A      0.231534    29A      0.262652  
      30A      0.262652    31A      0.316008    32A      0.316008  
      33A      0.325917    34A      0.350880    35A      0.445577  
      36A      0.445578    37A      0.473731    38A      0.481880  
      39A      0.481881    40A      0.517738    41A      0.517738  
      42A      0.576593    43A      0.576594    44A      0.586889  
      45A      0.700616    46A      0.806759    47A      0.830838  
      48A      0.831875    49A      0.831876    50A      0.884371  
      51A      0.884373    52A      0.937783    53A      1.024607  
      54A      1.024609    55A      1.065554    56A      1.065554  
      57A      1.081907    58A      1.150476    59A      1.238358  
      60A      1.238358    61A      1.245996    62A      1.252038  
      63A      1.259507    64A      1.259508    65A      1.271065  
      66A      1.306678    67A      1.306678    68A      1.358808  
      69A      1.371300    70A      1.371302    71A      1.388133  
      72A      1.483142    73A      1.593784    74A      1.593787  
      75A      1.745088    76A      1.745088    77A      1.757513  
      78A      1.801400    79A      1.801401    80A      1.801882  
      81A      1.898622    82A      1.898625    83A      2.132724  
      84A      2.175422    85A      2.175422    86A      2.268747  
      87A      2.268748    88A      2.299096    89A      2.347583  
      90A      2.367210    91A      2.433713    92A      2.433713  
      93A      2.516473    94A      2.516475    95A      2.532354  
      96A      2.532361    97A      2.613076    98A      2.613077  
      99A      2.633715   100A      2.663365   101A      2.663366  
     102A      2.747571   103A      2.811664   104A      2.811664  
     105A      2.835293   106A      2.885027   107A      3.009005  
     108A      3.009009   109A      3.041750   110A      3.041946  
     111A      3.056843   112A      3.056843   113A      3.057699  
     114A      3.074500   115A      3.074500   116A      3.110906  
     117A      3.110906   118A      3.113183   119A      3.113545  
     120A      3.159124   121A      3.159125   122A      3.180269  
     123A      3.188653   124A      3.254197   125A      3.343000  
     126A      3.343001   127A      3.469272   128A      3.469277  
     129A      3.514925   130A      3.565363   131A      3.565364  
     132A      3.694524   133A      3.856542   134A      3.928506  
     135A      3.928514   136A      3.969065   137A      4.059456  
     138A      4.059456   139A      4.127724   140A      4.325082  
     141A      4.325091   142A      4.388435   143A      4.422426  
     144A      4.422428   145A      4.570645   146A      4.609008  
     147A      4.609019   148A      4.713062   149A      5.306322  
     150A      5.408097   151A      5.408107   152A      5.496045  
     153A      5.496045   154A      5.629660   155A      5.629662  
     156A      5.713812   157A      6.088135   158A      6.097441  
     159A      6.124348   160A      6.124349   161A      6.222682  
     162A      6.222688   163A      6.277719   164A      6.348189  
     165A      6.348197   166A      6.425947   167A      6.445766  
     168A      6.445777   169A      6.738399   170A      6.861284  
     171A      6.861287   172A      6.888055   173A      6.990844  
     174A      6.990849   175A      7.093586   176A      7.218632  
     177A      7.322096   178A      7.322112   179A      7.474941  
     180A      7.474943   181A      7.530318   182A      7.583927  
     183A      7.583937   184A      7.638286   185A      7.638290  
     186A      7.692307   187A      7.773509   188A      7.947280  
     189A      7.947282   190A      8.011748   191A      8.082367  
     192A      8.082370   193A      8.143692   194A      8.143692  
     195A      8.228810   196A      8.243604   197A      8.282543  
     198A      8.282547   199A      8.415557   200A      8.415557  
     201A      8.452419   202A      8.466332   203A      8.562491  
     204A      8.562502   205A      8.564439   206A      8.607559  
     207A      8.758458   208A      8.812256   209A      8.812267  
     210A      8.853762   211A      8.853777   212A      8.984314  
     213A      9.067354   214A      9.067362   215A      9.099558  
     216A      9.170707   217A      9.170708   218A      9.423976  
     219A      9.504876   220A      9.504877   221A      9.741779  
     222A      9.959357   223A      9.959366   224A     10.030587  
     225A     10.087629   226A     10.087630   227A     10.255925  
     228A     10.495701   229A     10.495704   230A     10.601260  
     231A     10.853339   232A     11.589960   233A     11.665971  
     234A     11.665989   235A     12.092543   236A     12.092553  
     237A     12.094940   238A     12.286674   239A     12.286722  
     240A     12.418596   241A     14.488777   242A     14.488778  
     243A     14.828218   244A     14.828224   245A     14.892134  
     246A     15.689437   247A     30.352550   248A     39.436628  
     249A     96.850643   250A    200.570436   251A    325.366082  
     252A   1828.409148  

    Final Occupation by Irrep:
              A 
    DOCC [    23 ]
    NA   [    23 ]
    NB   [    23 ]

  @DF-RHF Final Energy: -2629.27898270859987

   => Energetics <=

    Nuclear Repulsion Energy =             83.4391879975700448
    One-Electron Energy =               -3827.2089481192156200
    Two-Electron Energy =                1114.4907774130458620
    Total Energy =                      -2629.2789827085998695

Computation Completed


Properties will be evaluated at   0.000000,   0.000000,   0.000000 [a0]

Properties computed using the SCF density matrix


 Multipole Moments:

 ------------------------------------------------------------------------------------
     Multipole            Electronic (a.u.)      Nuclear  (a.u.)        Total (a.u.)
 ------------------------------------------------------------------------------------

 L = 1.  Multiply by 2.5417464519 to convert [e a0] to [Debye]
 Dipole X            :         -0.0001455            0.0001650            0.0000194
 Dipole Y            :         11.9701721          -14.0121145           -2.0419424
 Dipole Z            :          0.0000000            0.0000000            0.0000000
 Magnitude           :                                                    2.0419424

 ------------------------------------------------------------------------------------

*** tstop() called on cmpsrv002 at Thu Sep 19 14:19:31 2024
Module time:
	user time   =      14.23 seconds =       0.24 minutes
	system time =       1.91 seconds =       0.03 minutes
	total time  =        202 seconds =       3.37 minutes
Total time:
	user time   =      14.24 seconds =       0.24 minutes
	system time =       1.91 seconds =       0.03 minutes
	total time  =        202 seconds =       3.37 minutes
   => Libint2 <=

    Primary   basis highest AM E, G, H:  6, 6, 3
    Auxiliary basis highest AM E, G, H:  7, 7, 4
    Onebody   basis highest AM E, G, H:  -, -, -
    Solid Harmonics ordering:            Gaussian

*** tstart() called on cmpsrv002
*** at Thu Sep 19 14:19:31 2024

   => Loading Basis Set <=

    Name: THIS_BASIS
    Role: ORBITAL
    Keyword: BASIS
    atoms 1, 4-6 entry H          line    15 file /home/vance/anaconda3/envs/p4env/share/psi4/basis/def2-qzvp.gbs 
    atoms 2      entry BR         line  2253 file /home/vance/anaconda3/envs/p4env/share/psi4/basis/def2-qzvp.gbs 
    atoms 3      entry N          line   242 file /home/vance/anaconda3/envs/p4env/share/psi4/basis/def2-qzvp.gbs 


         ---------------------------------------------------------
                       SAPT(DFT): delta HF Monomer A               
         ---------------------------------------------------------
                                   SCF
               by Justin Turney, Rob Parrish, Andy Simmonett
                          and Daniel G. A. Smith
                              RHF Reference
                        4 Threads,   7629 MiB Core
         ---------------------------------------------------------

  ==> Geometry <==

    Molecular point group: c1
    Full point group: Cs

    Geometry (in Angstrom), charge = 0, multiplicity = 1:

       Center              X                  Y                   Z               Mass       
    ------------   -----------------  -----------------  -----------------  -----------------
         H            0.000022767418    -0.932480036259     0.000000000000     1.007825032230
         BR          -0.000007232582     0.581739963741     0.000000000000    78.918337600000
      Gh(N)           0.000032767418    -2.578590036259     0.000000000000    14.003074004430
      Gh(H)          -0.474347232582    -2.931060036259     0.821650000000     1.007825032230
      Gh(H)          -0.474347232582    -2.931060036259    -0.821650000000     1.007825032230
      Gh(H)           0.948782767418    -2.931060036259     0.000000000000     1.007825032230

  Running in c1 symmetry.

  Rotational constants: A =      6.19413  B =      0.11388  C =      0.11388 [cm^-1]
  Rotational constants: A = 185695.44926  B =   3414.07786  C =   3414.07743 [MHz]
  Nuclear repulsion =   12.231513498576831

  Charge       = 0
  Multiplicity = 1
  Electrons    = 36
  Nalpha       = 18
  Nbeta        = 18

  ==> Algorithm <==

  SCF Algorithm Type is DF.
  DIIS enabled.
  MOM disabled.
  Fractional occupation disabled.
  Guess Type is SAD.
  Energy threshold   = 1.00e-08
  Density threshold  = 1.00e-08
  Integral threshold = 1.00e-12

  ==> Primary Basis <==

  Basis Set: THIS_BASIS
    Blend: DEF2-QZVP
    Number of shells: 82
    Number of basis functions: 252
    Number of Cartesian functions: 303
    Spherical Harmonics?: true
    Max angular momentum: 4

   => Loading Basis Set <=

    Name: (THIS_BASIS AUX)
    Role: JKFIT
    Keyword: DF_BASIS_SCF
    atoms 1, 4-6 entry H          line    18 file /home/vance/anaconda3/envs/p4env/share/psi4/basis/def2-universal-jkfit.gbs 
    atoms 2      entry BR         line  3124 file /home/vance/anaconda3/envs/p4env/share/psi4/basis/def2-universal-jkfit.gbs 
    atoms 3      entry N          line   258 file /home/vance/anaconda3/envs/p4env/share/psi4/basis/def2-universal-jkfit.gbs 

  ==> Integral Setup <==

  ==> DiskDFJK: Density-Fitted J/K Matrices <==

    J tasked:                  Yes
    K tasked:                  Yes
    wK tasked:                  No
    OpenMP threads:              4
    Integrals threads:           4
    Memory [MiB]:             5722
    Algorithm:                Core
    Integral Cache:           SAVE
    Schwarz Cutoff:          1E-12
    Fitting Condition:       1E-10

   => Auxiliary Basis Set <=

  Basis Set: (THIS_BASIS AUX)
    Blend: DEF2-UNIVERSAL-JKFIT
    Number of shells: 109
    Number of basis functions: 415
    Number of Cartesian functions: 544
    Spherical Harmonics?: true
    Max angular momentum: 5

  Minimum eigenvalue in the overlap matrix is 1.0783672388E-04.
  Reciprocal condition number of the overlap matrix is 1.2760159736E-05.
    Using symmetric orthogonalization.

  ==> Pre-Iterations <==

  SCF Guess: Superposition of Atomic Densities via on-the-fly atomic UHF (no occupation information).

   -------------------------
    Irrep   Nso     Nmo    
   -------------------------
     A        252     252 
   -------------------------
    Total     252     252
   -------------------------

  ==> Iterations <==

                           Total Energy        Delta E     RMS |[F,P]|

   @DF-RHF iter SAD: -2571.10345746041685   -2.57110e+03   0.00000e+00 
   @DF-RHF iter   1: -2572.74131665183859   -1.63786e+00   6.82596e-03 ADIIS/DIIS
   @DF-RHF iter   2: -2572.93143066326184   -1.90114e-01   4.54720e-03 ADIIS/DIIS
   @DF-RHF iter   3: -2573.04565286202887   -1.14222e-01   1.02096e-04 ADIIS/DIIS
   @DF-RHF iter   4: -2573.04615206654353   -4.99205e-04   3.62850e-05 DIIS
   @DF-RHF iter   5: -2573.04623445466495   -8.23881e-05   1.04425e-05 DIIS
   @DF-RHF iter   6: -2573.04624451652353   -1.00619e-05   2.14641e-06 DIIS
   @DF-RHF iter   7: -2573.04624482016925   -3.03646e-07   4.04050e-07 DIIS
   @DF-RHF iter   8: -2573.04624483035695   -1.01877e-08   5.67468e-08 DIIS
   @DF-RHF iter   9: -2573.04624483064117   -2.84217e-10   7.67202e-09 DIIS
  Energy and wave function converged.


  ==> Post-Iterations <==

    Orbital Energies [Eh]
    ---------------------

    Doubly Occupied:                                                      

       1A   -490.040302     2A    -65.179833     3A    -58.535411  
       4A    -58.533954     5A    -58.533954     6A     -9.851727  
       7A     -7.463153     8A     -7.456587     9A     -7.456587  
      10A     -3.207070    11A     -3.203325    12A     -3.203325  
      13A     -3.194723    14A     -3.194723    15A     -1.020409  
      16A     -0.564634    17A     -0.433490    18A     -0.433490  

    Virtual:                                                              

      19A      0.053457    20A      0.125087    21A      0.136679  
      22A      0.136679    23A      0.210849    24A      0.246895  
      25A      0.274895    26A      0.274895    27A      0.298666  
      28A      0.298666    29A      0.326179    30A      0.407412  
      31A      0.453798    32A      0.453798    33A      0.476988  
      34A      0.476988    35A      0.536790    36A      0.536791  
      37A      0.553307    38A      0.656660    39A      0.656660  
      40A      0.664394    41A      0.788700    42A      0.864511  
      43A      0.864512    44A      0.870483    45A      0.940073  
      46A      0.943886    47A      0.943888    48A      0.951650  
      49A      1.060097    50A      1.081708    51A      1.081709  
      52A      1.144903    53A      1.144905    54A      1.202193  
      55A      1.203275    56A      1.203275    57A      1.211264  
      58A      1.214989    59A      1.259308    60A      1.259308  
      61A      1.313022    62A      1.344735    63A      1.344735  
      64A      1.394297    65A      1.408643    66A      1.408644  
      67A      1.460075    68A      1.633541    69A      1.633542  
      70A      1.665947    71A      1.698249    72A      1.698249  
      73A      1.739550    74A      1.794967    75A      1.794967  
      76A      1.991391    77A      2.128799    78A      2.128802  
      79A      2.142740    80A      2.247210    81A      2.247212  
      82A      2.365739    83A      2.379105    84A      2.379107  
      85A      2.464522    86A      2.534447    87A      2.534449  
      88A      2.574465    89A      2.574465    90A      2.639874  
      91A      2.645349    92A      2.645351    93A      2.677383  
      94A      2.741544    95A      2.741546    96A      2.762196  
      97A      2.868699    98A      2.868700    99A      2.932206  
     100A      2.937013   101A      2.937015   102A      2.950754  
     103A      2.950756   104A      2.991486   105A      2.991639  
     106A      3.010760   107A      3.010760   108A      3.025587  
     109A      3.055521   110A      3.055522   111A      3.064167  
     112A      3.064328   113A      3.195355   114A      3.195357  
     115A      3.197929   116A      3.274436   117A      3.308980  
     118A      3.308983   119A      3.413750   120A      3.420748  
     121A      3.447870   122A      3.447873   123A      3.529982  
     124A      3.582435   125A      3.582437   126A      3.738329  
     127A      3.738336   128A      3.802810   129A      3.858312  
     130A      3.858316   131A      3.955761   132A      4.057244  
     133A      4.184632   134A      4.184634   135A      4.353078  
     136A      4.375319   137A      4.394612   138A      4.394612  
     139A      4.539515   140A      4.539523   141A      4.608658  
     142A      4.801628   143A      5.053363   144A      5.053364  
     145A      5.413152   146A      5.441925   147A      5.441925  
     148A      5.589474   149A      5.589475   150A      5.768817  
     151A      5.988496   152A      5.988514   153A      6.053587  
     154A      6.062986   155A      6.327988   156A      6.327994  
     157A      6.468511   158A      6.468516   159A      6.530561  
     160A      6.530571   161A      6.547881   162A      6.665100  
     163A      6.754087   164A      6.754100   165A      7.077001  
     166A      7.077001   167A      7.209124   168A      7.209127  
     169A      7.238224   170A      7.393287   171A      7.516523  
     172A      7.528099   173A      7.528105   174A      7.641773  
     175A      7.777566   176A      7.834192   177A      7.834195  
     178A      7.947509   179A      8.073202   180A      8.073205  
     181A      8.138494   182A      8.224668   183A      8.224671  
     184A      8.288895   185A      8.288899   186A      8.385161  
     187A      8.491432   188A      8.491436   189A      8.600190  
     190A      8.623445   191A      8.623449   192A      8.729058  
     193A      8.770460   194A      8.770461   195A      8.785403  
     196A      8.891178   197A      8.891181   198A      8.977943  
     199A      8.982848   200A      9.015211   201A      9.015215  
     202A      9.176860   203A      9.240671   204A      9.290087  
     205A      9.290094   206A      9.395777   207A      9.395781  
     208A      9.467915   209A      9.477330   210A      9.733258  
     211A      9.771150   212A      9.771155   213A      9.946587  
     214A     10.078244   215A     10.078257   216A     10.218645  
     217A     10.309902   218A     10.309917   219A     10.470856  
     220A     10.736356   221A     10.736371   222A     11.035792  
     223A     11.035804   224A     11.188473   225A     11.823796  
     226A     11.823807   227A     12.025528   228A     12.352923  
     229A     12.352972   230A     12.767606   231A     13.677255  
     232A     13.874353   233A     13.874375   234A     14.193722  
     235A     14.284252   236A     14.284277   237A     14.433208  
     238A     14.433208   239A     14.576363   240A     14.576389  
     241A     14.616198   242A     14.836493   243A     16.110268  
     244A     18.261346   245A     18.261368   246A     25.558736  
     247A     30.292853   248A     70.333096   249A     96.788928  
     250A    318.723240   251A    325.303810   252A   1828.345793  

    Final Occupation by Irrep:
              A 
    DOCC [    18 ]
    NA   [    18 ]
    NB   [    18 ]

  @DF-RHF Final Energy: -2573.04624483064117

   => Energetics <=

    Nuclear Repulsion Energy =             12.2315134985768310
    One-Electron Energy =               -3607.5421273825472781
    Two-Electron Energy =                1022.2643690533288918
    Total Energy =                      -2573.0462448306416263

Computation Completed


Properties will be evaluated at   0.000000,   0.000000,   0.000000 [a0]

Properties computed using the SCF density matrix


 Multipole Moments:

 ------------------------------------------------------------------------------------
     Multipole            Electronic (a.u.)      Nuclear  (a.u.)        Total (a.u.)
 ------------------------------------------------------------------------------------

 L = 1.  Multiply by 2.5417464519 to convert [e a0] to [Debye]
 Dipole X            :          0.0004434           -0.0004353            0.0000081
 Dipole Y            :        -37.1203172           36.7143904           -0.4059268
 Dipole Z            :          0.0000000            0.0000000            0.0000000
 Magnitude           :                                                    0.4059268

 ------------------------------------------------------------------------------------

*** tstop() called on cmpsrv002 at Thu Sep 19 14:21:28 2024
Module time:
	user time   =      12.00 seconds =       0.20 minutes
	system time =       1.16 seconds =       0.02 minutes
	total time  =        117 seconds =       1.95 minutes
Total time:
	user time   =      26.24 seconds =       0.44 minutes
	system time =       3.07 seconds =       0.05 minutes
	total time  =        319 seconds =       5.32 minutes
   => Libint2 <=

    Primary   basis highest AM E, G, H:  6, 6, 3
    Auxiliary basis highest AM E, G, H:  7, 7, 4
    Onebody   basis highest AM E, G, H:  -, -, -
    Solid Harmonics ordering:            Gaussian

*** tstart() called on cmpsrv002
*** at Thu Sep 19 14:21:28 2024

   => Loading Basis Set <=

    Name: THIS_BASIS
    Role: ORBITAL
    Keyword: BASIS
    atoms 1, 4-6 entry H          line    15 file /home/vance/anaconda3/envs/p4env/share/psi4/basis/def2-qzvp.gbs 
    atoms 2      entry BR         line  2253 file /home/vance/anaconda3/envs/p4env/share/psi4/basis/def2-qzvp.gbs 
    atoms 3      entry N          line   242 file /home/vance/anaconda3/envs/p4env/share/psi4/basis/def2-qzvp.gbs 


         ---------------------------------------------------------
                       SAPT(DFT): delta HF Monomer B               
         ---------------------------------------------------------
                                   SCF
               by Justin Turney, Rob Parrish, Andy Simmonett
                          and Daniel G. A. Smith
                              RHF Reference
                        4 Threads,   7629 MiB Core
         ---------------------------------------------------------

  ==> Geometry <==

    Molecular point group: c1
    Full point group: Cs

    Geometry (in Angstrom), charge = 0, multiplicity = 1:

       Center              X                  Y                   Z               Mass       
    ------------   -----------------  -----------------  -----------------  -----------------
      Gh(H)           0.000022767418    -0.932480036259     0.000000000000     1.007825032230
      Gh(BR)         -0.000007232582     0.581739963741     0.000000000000    78.918337600000
         N            0.000032767418    -2.578590036259     0.000000000000    14.003074004430
         H           -0.474347232582    -2.931060036259     0.821650000000     1.007825032230
         H           -0.474347232582    -2.931060036259    -0.821650000000     1.007825032230
         H            0.948782767418    -2.931060036259     0.000000000000     1.007825032230

  Running in c1 symmetry.

  Rotational constants: A =      6.19413  B =      0.11388  C =      0.11388 [cm^-1]
  Rotational constants: A = 185695.44926  B =   3414.07786  C =   3414.07743 [MHz]
  Nuclear repulsion =   11.945783476959880

  Charge       = 0
  Multiplicity = 1
  Electrons    = 10
  Nalpha       = 5
  Nbeta        = 5

  ==> Algorithm <==

  SCF Algorithm Type is DF.
  DIIS enabled.
  MOM disabled.
  Fractional occupation disabled.
  Guess Type is SAD.
  Energy threshold   = 1.00e-08
  Density threshold  = 1.00e-08
  Integral threshold = 1.00e-12

  ==> Primary Basis <==

  Basis Set: THIS_BASIS
    Blend: DEF2-QZVP
    Number of shells: 82
    Number of basis functions: 252
    Number of Cartesian functions: 303
    Spherical Harmonics?: true
    Max angular momentum: 4

   => Loading Basis Set <=

    Name: (THIS_BASIS AUX)
    Role: JKFIT
    Keyword: DF_BASIS_SCF
    atoms 1, 4-6 entry H          line    18 file /home/vance/anaconda3/envs/p4env/share/psi4/basis/def2-universal-jkfit.gbs 
    atoms 2      entry BR         line  3124 file /home/vance/anaconda3/envs/p4env/share/psi4/basis/def2-universal-jkfit.gbs 
    atoms 3      entry N          line   258 file /home/vance/anaconda3/envs/p4env/share/psi4/basis/def2-universal-jkfit.gbs 

  ==> Integral Setup <==

  ==> DiskDFJK: Density-Fitted J/K Matrices <==

    J tasked:                  Yes
    K tasked:                  Yes
    wK tasked:                  No
    OpenMP threads:              4
    Integrals threads:           4
    Memory [MiB]:             5722
    Algorithm:                Core
    Integral Cache:           SAVE
    Schwarz Cutoff:          1E-12
    Fitting Condition:       1E-10

   => Auxiliary Basis Set <=

  Basis Set: (THIS_BASIS AUX)
    Blend: DEF2-UNIVERSAL-JKFIT
    Number of shells: 109
    Number of basis functions: 415
    Number of Cartesian functions: 544
    Spherical Harmonics?: true
    Max angular momentum: 5

  Minimum eigenvalue in the overlap matrix is 1.0783672388E-04.
  Reciprocal condition number of the overlap matrix is 1.2760159736E-05.
    Using symmetric orthogonalization.

  ==> Pre-Iterations <==

  SCF Guess: Superposition of Atomic Densities via on-the-fly atomic UHF (no occupation information).

   -------------------------
    Irrep   Nso     Nmo    
   -------------------------
     A        252     252 
   -------------------------
    Total     252     252
   -------------------------

  ==> Iterations <==

                           Total Energy        Delta E     RMS |[F,P]|

   @DF-RHF iter SAD:   -55.65138413289964   -5.56514e+01   0.00000e+00 
   @DF-RHF iter   1:   -56.13001582592768   -4.78632e-01   1.82277e-03 ADIIS/DIIS
   @DF-RHF iter   2:   -56.19693466718864   -6.69188e-02   1.05133e-03 ADIIS/DIIS
   @DF-RHF iter   3:   -56.22381931552292   -2.68846e-02   9.74584e-05 DIIS
   @DF-RHF iter   4:   -56.22444731967761   -6.28004e-04   1.81028e-05 DIIS
   @DF-RHF iter   5:   -56.22446780224205   -2.04826e-05   3.37315e-06 DIIS
   @DF-RHF iter   6:   -56.22446900949379   -1.20725e-06   8.57012e-07 DIIS
   @DF-RHF iter   7:   -56.22446909194100   -8.24472e-08   1.89745e-07 DIIS
   @DF-RHF iter   8:   -56.22446909626680   -4.32580e-09   3.01477e-08 DIIS
   @DF-RHF iter   9:   -56.22446909637556   -1.08756e-10   8.41489e-09 DIIS
  Energy and wave function converged.


  ==> Post-Iterations <==

    Orbital Energies [Eh]
    ---------------------

    Doubly Occupied:                                                      

       1A    -15.538460     2A     -1.138682     3A     -0.631239  
       4A     -0.631237     5A     -0.424033  

    Virtual:                                                              

       6A      0.099768     7A      0.121332     8A      0.154943  
       9A      0.154943    10A      0.198563    11A      0.198563  
      12A      0.233663    13A      0.323019    14A      0.323020  
      15A      0.324514    16A      0.384049    17A      0.507331  
      18A      0.521582    19A      0.521584    20A      0.540634  
      21A      0.540635    22A      0.567750    23A      0.680900  
      24A      0.680900    25A      0.681077    26A      0.744058  
      27A      0.744058    28A      0.768806    29A      0.768806  
      30A      0.813263    31A      0.858339    32A      0.868208  
      33A      0.899342    34A      0.899343    35A      0.970910  
      36A      0.987233    37A      0.987234    38A      1.059770  
      39A      1.074845    40A      1.074848    41A      1.169509  
      42A      1.169510    43A      1.267653    44A      1.312972  
      45A      1.340896    46A      1.340896    47A      1.406924  
      48A      1.450396    49A      1.451055    50A      1.454081  
      51A      1.454082    52A      1.462135    53A      1.462138  
      54A      1.525407    55A      1.570180    56A      1.774478  
      57A      1.774480    58A      1.868924    59A      1.878074  
      60A      1.878074    61A      1.978122    62A      1.978126  
      63A      1.985738    64A      2.177709    65A      2.286513  
      66A      2.286516    67A      2.342722    68A      2.373081  
      69A      2.373082    70A      2.395617    71A      2.428814  
      72A      2.428815    73A      2.463222    74A      2.471822  
      75A      2.471822    76A      2.508920    77A      2.508920  
      78A      2.566270    79A      2.601381    80A      2.601388  
      81A      2.657937    82A      2.657938    83A      2.711765  
      84A      2.764965    85A      2.764970    86A      2.879369  
      87A      2.905053    88A      2.905053    89A      2.943023  
      90A      3.027133    91A      3.027136    92A      3.088446  
      93A      3.148044    94A      3.148047    95A      3.194736  
      96A      3.194737    97A      3.200906    98A      3.232094  
      99A      3.406607   100A      3.406611   101A      3.432495  
     102A      3.525352   103A      3.588384   104A      3.588684  
     105A      3.591088   106A      3.591088   107A      3.763925  
     108A      3.763930   109A      3.779185   110A      3.822582  
     111A      3.822588   112A      3.976306   113A      3.993288  
     114A      3.993295   115A      4.188508   116A      4.291248  
     117A      4.384221   118A      4.384232   119A      4.499293  
     120A      4.499294   121A      4.512001   122A      4.512154  
     123A      4.525882   124A      4.525883   125A      4.602732  
     126A      4.602733   127A      4.616963   128A      4.654596  
     129A      4.664718   130A      4.664729   131A      4.761080  
     132A      4.829320   133A      4.829322   134A      5.235291  
     135A      5.476986   136A      5.480706   137A      5.480716  
     138A      5.779134   139A      6.184497   140A      6.184497  
     141A      6.272807   142A      6.272814   143A      6.326662  
     144A      6.379584   145A      6.395472   146A      6.398470  
     147A      6.398479   148A      6.436931   149A      6.701274  
     150A      6.701283   151A      6.789581   152A      6.880563  
     153A      6.880563   154A      6.949798   155A      6.963560  
     156A      6.963564   157A      7.051175   158A      7.051178  
     159A      7.196518   160A      7.234471   161A      7.234479  
     162A      7.269413   163A      7.419639   164A      7.419658  
     165A      7.535875   166A      7.625875   167A      7.625882  
     168A      7.684883   169A      7.698810   170A      7.698813  
     171A      7.838903   172A      7.838905   173A      7.918141  
     174A      8.028747   175A      8.028749   176A      8.070657  
     177A      8.156617   178A      8.156620   179A      8.273935  
     180A      8.296601   181A      8.394555   182A      8.394556  
     183A      8.475732   184A      8.519382   185A      8.571052  
     186A      8.571062   187A      8.661349   188A      8.662111  
     189A      8.763792   190A      8.763799   191A      8.878938  
     192A      8.893443   193A      8.893445   194A      8.982760  
     195A      8.982769   196A      9.079559   197A      9.079561  
     198A      9.111763   199A      9.304693   200A      9.304694  
     201A      9.388939   202A      9.544848   203A      9.544848  
     204A      9.716400   205A      9.716404   206A     10.028322  
     207A     10.054458   208A     10.054468   209A     10.168041  
     210A     10.168042   211A     10.199158   212A     10.313864  
     213A     10.491206   214A     10.553496   215A     10.553499  
     216A     10.681203   217A     10.981631   218A     10.981631  
     219A     11.294631   220A     11.614064   221A     11.671835  
     222A     11.721897   223A     11.721915   224A     12.148783  
     225A     12.148793   226A     12.174903   227A     12.346501  
     228A     12.346550   229A     12.472312   230A     13.026067  
     231A     14.882264   232A     14.882270   233A     15.746620  
     234A     28.715335   235A     28.715335   236A     28.986216  
     237A     29.337257   238A     35.267974   239A     35.267974  
     240A     35.458216   241A     35.458217   242A     36.137535  
     243A     39.495062   244A     64.660441   245A    141.580125  
     246A    165.026399   247A    165.026399   248A    165.421091  
     249A    200.627837   250A    325.222186   251A    874.497063  
     252A   3948.657878  

    Final Occupation by Irrep:
              A 
    DOCC [     5 ]
    NA   [     5 ]
    NB   [     5 ]

  @DF-RHF Final Energy:   -56.22446909637556

   => Energetics <=

    Nuclear Repulsion Energy =             11.9457834769598801
    One-Electron Energy =                 -99.6132004039100138
    Two-Electron Energy =                  31.4429478305745818
    Total Energy =                        -56.2244690963755573

Computation Completed


Properties will be evaluated at   0.000000,   0.000000,   0.000000 [a0]

Properties computed using the SCF density matrix


 Multipole Moments:

 ------------------------------------------------------------------------------------
     Multipole            Electronic (a.u.)      Nuclear  (a.u.)        Total (a.u.)
 ------------------------------------------------------------------------------------

 L = 1.  Multiply by 2.5417464519 to convert [e a0] to [Debye]
 Dipole X            :         -0.0006022            0.0006003           -0.0000018
 Dipole Y            :         50.1207470          -50.7265049           -0.6057579
 Dipole Z            :          0.0000000            0.0000000            0.0000000
 Magnitude           :                                                    0.6057579

 ------------------------------------------------------------------------------------

*** tstop() called on cmpsrv002 at Thu Sep 19 14:23:57 2024
Module time:
	user time   =      11.52 seconds =       0.19 minutes
	system time =       0.95 seconds =       0.02 minutes
	total time  =        149 seconds =       2.48 minutes
Total time:
	user time   =      37.76 seconds =       0.63 minutes
	system time =       4.02 seconds =       0.07 minutes
	total time  =        468 seconds =       7.80 minutes

         ---------------------------------------------------------
                        SAPT(DFT): delta HF Segment                

                   by Daniel G. A. Smith and Rob Parrish           
         ---------------------------------------------------------


  ==> Preparing SAPT Data Cache <== 

  ==> DiskDFJK: Density-Fitted J/K Matrices <==

    J tasked:                  Yes
    K tasked:                  Yes
    wK tasked:                  No
    OpenMP threads:              4
    Integrals threads:           4
    Memory [MiB]:             5722
    Algorithm:                Core
    Integral Cache:           SAVE
    Schwarz Cutoff:          1E-12
    Fitting Condition:       1E-10

   => Auxiliary Basis Set <=

  Basis Set: (THIS_BASIS AUX)
    Blend: DEF2-UNIVERSAL-JKFIT
    Number of shells: 109
    Number of basis functions: 415
    Number of Cartesian functions: 544
    Spherical Harmonics?: true
    Max angular momentum: 5


  ==> E10 Electostatics <== 

    Elst10,r                        -40.54464510 [mEh]

  ==> E10 Exchange <== 

    Exch10(S^2)                      59.44230589 [mEh]
    Exch10                           62.33612132 [mEh]

  ==> E20 Induction <== 

   => Uncoupled Induction <= 

    Ind20,u (A<-B)                  -10.39637261 [mEh]
    Ind20,u (A->B)                  -18.01581664 [mEh]
    Ind20,u                         -28.41218925 [mEh]
    Exch-Ind20,u (A<-B)               7.11472966 [mEh]
    Exch-Ind20,u (A->B)               9.70790973 [mEh]
    Exch-Ind20,u                     16.82263939 [mEh]
    Exch-Ind20,u (A<-B) (S^inf)       7.87675243 [mEh]
    Exch-Ind20,u (A->B) (S^inf)      10.88989203 [mEh]
    Exch-Ind20,u (S^inf)             18.76664446 [mEh]

   => Coupled Induction <= 

   ---------------------------------------------------
              SAPT Coupled Induction Solver           
   ---------------------------------------------------
    Maxiter             =          20
    Convergence         =   1.000E-06
   ---------------------------------------------------
     Iter       (A<-B)           (B->A)      Time [s]
   ---------------------------------------------------
    Guess    1.210166e-01     1.376888e-01          0
        1    3.908923e-02     3.763590e-02          0
        2    6.353950e-03     1.106321e-02          0
        3    3.105324e-03     3.197518e-03          0
        4    3.160956e-04     6.608766e-04          0
        5    5.366131e-05     1.083163e-04          0
        6    1.254754e-05     1.615840e-05          0
        7    2.706469e-06     2.401679e-06          0
        8    4.304362e-07*    5.367667e-07*         1
   ---------------------------------------------------

    Ind20,r (A<-B)                  -11.97598937 [mEh]
    Ind20,r (A->B)                  -22.76484854 [mEh]
    Ind20,r                         -34.74083792 [mEh]
    Exch-Ind20,r (A<-B)               8.58169809 [mEh]
    Exch-Ind20,r (A->B)              12.93485449 [mEh]
    Exch-Ind20,r                     21.51655258 [mEh]
    Exch-Ind20,r (A<-B) (S^inf)       9.52284650 [mEh]
    Exch-Ind20,r (A->B) (S^inf)      14.59784043 [mEh]
    Exch-Ind20,r (S^inf)             24.12068693 [mEh]

   Partial SAPT(HF) Results, to compute Delta HF (dHF)
  ---------------------------------------------------------------------------------------------------------
    Electrostatics                  -40.54464510 [mEh]    -25.44214891 [kcal/mol]   -106.44995105 [kJ/mol]
      Elst10,r                      -40.54464510 [mEh]    -25.44214891 [kcal/mol]   -106.44995105 [kJ/mol]

    Exchange                         62.33612132 [mEh]     39.11650668 [kcal/mol]    163.66346397 [kJ/mol]
      Exch10                         62.33612132 [mEh]     39.11650668 [kcal/mol]    163.66346397 [kJ/mol]
      Exch10(S^2)                    59.44230589 [mEh]     37.30061009 [kcal/mol]    156.06575261 [kJ/mol]

    Induction (no dHF)              -13.22428533 [mEh]     -8.29836433 [kcal/mol]    -34.72035636 [kJ/mol]
      Ind20,r                       -34.74083792 [mEh]    -21.80020492 [kcal/mol]    -91.21205738 [kJ/mol]
      Exch-Ind20,r                   21.51655258 [mEh]     13.50184059 [kcal/mol]     56.49170102 [kJ/mol]
      Induction (A<-B) (no dHF)      -3.39429128 [mEh]     -2.12994994 [kcal/mol]     -8.91171053 [kJ/mol]
      Induction (A->B) (no dHF)      -9.82999405 [mEh]     -6.16841439 [kcal/mol]    -25.80864583 [kJ/mol]

    Subtotal SAPT(HF)                 8.56719088 [mEh]      5.37599344 [kcal/mol]     22.49315655 [kJ/mol]
    Total HF                         -8.26878158 [mEh]     -5.18873878 [kcal/mol]    -21.70968306 [kJ/mol]
    Delta HF                        -16.83597246 [mEh]    -10.56473222 [kcal/mol]    -44.20283961 [kJ/mol]
  ---------------------------------------------------------------------------------------------------------
   Partial SAPT(HF) Results, alternate SAPT0-like display
  ---------------------------------------------------------------------------------------------------------
    Induction                       -30.06025779 [mEh]    -18.86309655 [kcal/mol]    -78.92319597 [kJ/mol]
      Ind20,r                       -34.74083792 [mEh]    -21.80020492 [kcal/mol]    -91.21205738 [kJ/mol]
      Exch-Ind20,r                   21.51655258 [mEh]     13.50184059 [kcal/mol]     56.49170102 [kJ/mol]
      delta HF,r (2)                -16.83597246 [mEh]    -10.56473222 [kcal/mol]    -44.20283961 [kJ/mol]
      Induction (A<-B)               -7.71559811 [mEh]     -4.84161091 [kcal/mol]    -20.25730006 [kJ/mol]
      Induction (A->B)              -22.34465968 [mEh]    -14.02148564 [kcal/mol]    -58.66589591 [kJ/mol]
  ---------------------------------------------------------------------------------------------------------
   => Libint2 <=

    Primary   basis highest AM E, G, H:  6, 6, 3
    Auxiliary basis highest AM E, G, H:  7, 7, 4
    Onebody   basis highest AM E, G, H:  -, -, -
    Solid Harmonics ordering:            Gaussian

*** tstart() called on cmpsrv002
*** at Thu Sep 19 14:23:59 2024

   => Loading Basis Set <=

    Name: THIS_BASIS
    Role: ORBITAL
    Keyword: BASIS
    atoms 1, 4-6 entry H          line    15 file /home/vance/anaconda3/envs/p4env/share/psi4/basis/def2-qzvp.gbs 
    atoms 2      entry BR         line  2253 file /home/vance/anaconda3/envs/p4env/share/psi4/basis/def2-qzvp.gbs 
    atoms 3      entry N          line   242 file /home/vance/anaconda3/envs/p4env/share/psi4/basis/def2-qzvp.gbs 


         ---------------------------------------------------------
                          SAPT(DFT): DFT Monomer A                 
         ---------------------------------------------------------
                                   SCF
               by Justin Turney, Rob Parrish, Andy Simmonett
                          and Daniel G. A. Smith
                              RKS Reference
                        4 Threads,   7629 MiB Core
         ---------------------------------------------------------

  ==> Geometry <==

    Molecular point group: c1
    Full point group: Cs

    Geometry (in Angstrom), charge = 0, multiplicity = 1:

       Center              X                  Y                   Z               Mass       
    ------------   -----------------  -----------------  -----------------  -----------------
         H            0.000022767418    -0.932480036259     0.000000000000     1.007825032230
         BR          -0.000007232582     0.581739963741     0.000000000000    78.918337600000
      Gh(N)           0.000032767418    -2.578590036259     0.000000000000    14.003074004430
      Gh(H)          -0.474347232582    -2.931060036259     0.821650000000     1.007825032230
      Gh(H)          -0.474347232582    -2.931060036259    -0.821650000000     1.007825032230
      Gh(H)           0.948782767418    -2.931060036259     0.000000000000     1.007825032230

  Running in c1 symmetry.

  Rotational constants: A =      6.19413  B =      0.11388  C =      0.11388 [cm^-1]
  Rotational constants: A = 185695.44926  B =   3414.07786  C =   3414.07743 [MHz]
  Nuclear repulsion =   12.231513498576831

  Charge       = 0
  Multiplicity = 1
  Electrons    = 36
  Nalpha       = 18
  Nbeta        = 18

  ==> Algorithm <==

  SCF Algorithm Type is DF.
  DIIS enabled.
  MOM disabled.
  Fractional occupation disabled.
  Guess Type is SAD.
  Energy threshold   = 1.00e-08
  Density threshold  = 1.00e-08
  Integral threshold = 1.00e-12

  ==> Primary Basis <==

  Basis Set: THIS_BASIS
    Blend: DEF2-QZVP
    Number of shells: 82
    Number of basis functions: 252
    Number of Cartesian functions: 303
    Spherical Harmonics?: true
    Max angular momentum: 4

  ==> DFT Potential <==

   => LibXC <=

    Version 6.2.2
    S. Lehtola, C. Steigemann, M. J.T. Oliveira, and M. A.L. Marques.,  SoftwareX 7, 15 (2018) (10.1016/j.softx.2017.11.002)

   => Composite Functional: PBE0 <= 

    PBE0 Hyb-GGA Exchange-Correlation Functional

    C. Adamo and V. Barone.,  J. Chem. Phys. 110, 6158 (1999) (10.1063/1.478522)
    M. Ernzerhof and G. E. Scuseria.,  J. Chem. Phys. 110, 5029 (1999) (10.1063/1.478401)

    Deriv               =              1
    GGA                 =           TRUE
    Meta                =          FALSE

    Exchange Hybrid     =           TRUE
    MP2 Hybrid          =          FALSE

   => Exchange Functionals <=

    0.7500   Perdew, Burke & Ernzerhof

   => Exact (HF) Exchange <=

    0.2500               HF 

   => Correlation Functionals <=

    1.0000   Perdew, Burke & Ernzerhof

   => LibXC Density Thresholds  <==

    XC_HYB_GGA_XC_PBEH:  1.00E-15 

   => Asymptotic Correction <=

    X Functional        =    XC_GGA_X_LB
    C Functional        =   XC_LDA_C_VWN
    Bulk Shift          =       0.106591
    GRAC Alpha          =       0.500000
    GRAC Beta           =      40.000000

   => Molecular Quadrature <=

    Radial Scheme          =       TREUTLER
    Pruning Scheme         =           NONE
    Nuclear Scheme         =       TREUTLER

    Blocking Scheme        =         OCTREE
    BS radius alpha        =              1
    Pruning alpha          =              1
    Radial Points          =             75
    Spherical Points       =            302
    Total Points           =         130206
    Total Blocks           =           1043
    Max Points             =            256
    Max Functions          =            239
    Weights Tolerance      =       1.00E-15

   => Loading Basis Set <=

    Name: (THIS_BASIS AUX)
    Role: JKFIT
    Keyword: DF_BASIS_SCF
    atoms 1, 4-6 entry H          line    18 file /home/vance/anaconda3/envs/p4env/share/psi4/basis/def2-universal-jkfit.gbs 
    atoms 2      entry BR         line  3124 file /home/vance/anaconda3/envs/p4env/share/psi4/basis/def2-universal-jkfit.gbs 
    atoms 3      entry N          line   258 file /home/vance/anaconda3/envs/p4env/share/psi4/basis/def2-universal-jkfit.gbs 

  ==> Integral Setup <==

  ==> DiskDFJK: Density-Fitted J/K Matrices <==

    J tasked:                  Yes
    K tasked:                  Yes
    wK tasked:                  No
    OpenMP threads:              4
    Integrals threads:           4
    Memory [MiB]:             4971
    Algorithm:                Core
    Integral Cache:           SAVE
    Schwarz Cutoff:          1E-12
    Fitting Condition:       1E-10

   => Auxiliary Basis Set <=

  Basis Set: (THIS_BASIS AUX)
    Blend: DEF2-UNIVERSAL-JKFIT
    Number of shells: 109
    Number of basis functions: 415
    Number of Cartesian functions: 544
    Spherical Harmonics?: true
    Max angular momentum: 5

  Cached 100.0% of DFT collocation blocks in 0.733 [GiB].

  Minimum eigenvalue in the overlap matrix is 1.0783672388E-04.
  Reciprocal condition number of the overlap matrix is 1.2760159736E-05.
    Using symmetric orthogonalization.

  ==> Pre-Iterations <==

  SCF Guess: Superposition of Atomic Densities via on-the-fly atomic UHF (no occupation information).

   -------------------------
    Irrep   Nso     Nmo    
   -------------------------
     A        252     252 
   -------------------------
    Total     252     252
   -------------------------

  ==> Iterations <==

                           Total Energy        Delta E     RMS |[F,P]|

   @DF-RKS iter SAD: -2572.87175271527894   -2.57287e+03   0.00000e+00 
   @DF-RKS iter   1: -2574.05671390995849   -1.18496e+00   8.57868e-03 ADIIS/DIIS
   @DF-RKS iter   2: -2573.97368577520092    8.30281e-02   9.00314e-03 ADIIS/DIIS
   @DF-RKS iter   3: -2574.50576263536504   -5.32077e-01   2.45985e-04 ADIIS/DIIS
   @DF-RKS iter   4: -2574.50663177065599   -8.69135e-04   2.05095e-04 ADIIS/DIIS
   @DF-RKS iter   5: -2574.50815838681137   -1.52662e-03   1.26027e-05 DIIS
   @DF-RKS iter   6: -2574.50816034316267   -1.95635e-06   2.09973e-06 DIIS
   @DF-RKS iter   7: -2574.50816059467570   -2.51513e-07   8.88262e-08 DIIS
   @DF-RKS iter   8: -2574.50816058734881    7.32689e-09   7.74200e-09 DIIS
  Energy and wave function converged.


  ==> Post-Iterations <==

   Electrons on quadrature grid:
      Ntotal   =   35.9999975056 ; deviation = -2.494e-06 

    Orbital Energies [Eh]
    ---------------------

    Doubly Occupied:                                                      

       1A   -483.380963     2A    -62.767778     3A    -56.542725  
       4A    -56.539123     5A    -56.539123     6A     -8.893450  
       7A     -6.703948     8A     -6.692847     9A     -6.692847  
      10A     -2.789672    11A     -2.786233    12A     -2.786233  
      13A     -2.777150    14A     -2.777150    15A     -0.912028  
      16A     -0.554578    17A     -0.427416    18A     -0.427416  

    Virtual:                                                              

      19A     -0.141769    20A     -0.019658    21A      0.013335  
      22A      0.018846    23A      0.018858    24A      0.081108  
      25A      0.096785    26A      0.096785    27A      0.130233  
      28A      0.130236    29A      0.201156    30A      0.214602  
      31A      0.214603    32A      0.244159    33A      0.255324  
      34A      0.255331    35A      0.338044    36A      0.407806  
      37A      0.407813    38A      0.481764    39A      0.494252  
      40A      0.494254    41A      0.578928    42A      0.654436  
      43A      0.654451    44A      0.708382    45A      0.777586  
      46A      0.793129    47A      0.793135    48A      0.819224  
      49A      0.823170    50A      0.861188    51A      0.861189  
      52A      0.890642    53A      0.891069    54A      0.944496  
      55A      0.944499    56A      0.952799    57A      0.952806  
      58A      0.992012    59A      0.992015    60A      1.028308  
      61A      1.071881    62A      1.168418    63A      1.168846  
      64A      1.168849    65A      1.208703    66A      1.208715  
      67A      1.312989    68A      1.328586    69A      1.328587  
      70A      1.342117    71A      1.342118    72A      1.376866  
      73A      1.438644    74A      1.526623    75A      1.526623  
      76A      1.750398    77A      1.859448    78A      1.859456  
      79A      1.944043    80A      2.019895    81A      2.019897  
      82A      2.107529    83A      2.150285    84A      2.150289  
      85A      2.330947    86A      2.334363    87A      2.334366  
      88A      2.339917    89A      2.387629    90A      2.387631  
      91A      2.428068    92A      2.428072    93A      2.463525  
      94A      2.533571    95A      2.533574    96A      2.545122  
      97A      2.577164    98A      2.577315    99A      2.593721  
     100A      2.593721   101A      2.614418   102A      2.614418  
     103A      2.631518   104A      2.631965   105A      2.675359  
     106A      2.675361   107A      2.734641   108A      2.739564  
     109A      2.739571   110A      2.791197   111A      2.791198  
     112A      2.847917   113A      2.884178   114A      2.884184  
     115A      3.004443   116A      3.004444   117A      3.009904  
     118A      3.035416   119A      3.203249   120A      3.233280  
     121A      3.233283   122A      3.280379   123A      3.297474  
     124A      3.343707   125A      3.343710   126A      3.465992  
     127A      3.503855   128A      3.503860   129A      3.659791  
     130A      3.659794   131A      3.680490   132A      3.780089  
     133A      3.818855   134A      3.818857   135A      4.027464  
     136A      4.027467   137A      4.162755   138A      4.210371  
     139A      4.311256   140A      4.376974   141A      4.376978  
     142A      4.447051   143A      4.835384   144A      4.835384  
     145A      4.908063   146A      4.908065   147A      5.021034  
     148A      5.021035   149A      5.229118   150A      5.290097  
     151A      5.656603   152A      5.666640   153A      5.813581  
     154A      5.813595   155A      6.004961   156A      6.004972  
     157A      6.293014   158A      6.293020   159A      6.333824  
     160A      6.333830   161A      6.400499   162A      6.415450  
     163A      6.568931   164A      6.568939   165A      6.782249  
     166A      6.782255   167A      6.907730   168A      7.063303  
     169A      7.063306   170A      7.132286   171A      7.256071  
     172A      7.309379   173A      7.309385   174A      7.509710  
     175A      7.583117   176A      7.607715   177A      7.607722  
     178A      7.781526   179A      7.781614   180A      7.803637  
     181A      7.864910   182A      7.865083   183A      7.936042  
     184A      8.029834   185A      8.054317   186A      8.054319  
     187A      8.298922   188A      8.317306   189A      8.317317  
     190A      8.467972   191A      8.467976   192A      8.506146  
     193A      8.526068   194A      8.526075   195A      8.640333  
     196A      8.640340   197A      8.642933   198A      8.695947  
     199A      8.843335   200A      8.876562   201A      8.876563  
     202A      8.985665   203A      9.068651   204A      9.084383  
     205A      9.118133   206A      9.118139   207A      9.236578  
     208A      9.236582   209A      9.338012   210A      9.549087  
     211A      9.616825   212A      9.616829   213A      9.776661  
     214A      9.916933   215A      9.916944   216A      9.987780  
     217A     10.152401   218A     10.152417   219A     10.217925  
     220A     10.575024   221A     10.575040   222A     10.871329  
     223A     10.871340   224A     11.025879   225A     11.669655  
     226A     11.669665   227A     11.824255   228A     12.197118  
     229A     12.197167   230A     12.617245   231A     13.509713  
     232A     13.509713   233A     13.523926   234A     13.716502  
     235A     13.716523   236A     13.910295   237A     14.035143  
     238A     14.122133   239A     14.122157   240A     14.416599  
     241A     14.416626   242A     14.450677   243A     15.954133  
     244A     18.103562   245A     18.103589   246A     25.387707  
     247A     29.136547   248A     70.159519   249A     94.850532  
     250A    318.550862   251A    321.773213   252A   1819.330207  

    Final Occupation by Irrep:
              A 
    DOCC [    18 ]
    NA   [    18 ]
    NB   [    18 ]

  @DF-RKS Final Energy: -2574.50816058734881

   => Energetics <=

    Nuclear Repulsion Energy =             12.2315134985768310
    One-Electron Energy =               -3607.2508187320972866
    Two-Electron Energy =                1089.3927154016164423
    DFT Exchange-Correlation Energy =     -68.8815707554455656
    Empirical Dispersion Energy =           0.0000000000000000
    VV10 Nonlocal Energy =                  0.0000000000000000
    Total Energy =                      -2574.5081605873492663

Computation Completed


Properties will be evaluated at   0.000000,   0.000000,   0.000000 [a0]

Properties computed using the SCF density matrix


 Multipole Moments:

 ------------------------------------------------------------------------------------
     Multipole            Electronic (a.u.)      Nuclear  (a.u.)        Total (a.u.)
 ------------------------------------------------------------------------------------

 L = 1.  Multiply by 2.5417464519 to convert [e a0] to [Debye]
 Dipole X            :          0.0004473           -0.0004353            0.0000120
 Dipole Y            :        -37.0904436           36.7143904           -0.3760533
 Dipole Z            :          0.0000000            0.0000000            0.0000000
 Magnitude           :                                                    0.3760533

 ------------------------------------------------------------------------------------

*** tstop() called on cmpsrv002 at Thu Sep 19 14:26:18 2024
Module time:
	user time   =      20.84 seconds =       0.35 minutes
	system time =       1.67 seconds =       0.03 minutes
	total time  =        139 seconds =       2.32 minutes
Total time:
	user time   =      66.42 seconds =       1.11 minutes
	system time =       5.80 seconds =       0.10 minutes
	total time  =        609 seconds =      10.15 minutes
   => Libint2 <=

    Primary   basis highest AM E, G, H:  6, 6, 3
    Auxiliary basis highest AM E, G, H:  7, 7, 4
    Onebody   basis highest AM E, G, H:  -, -, -
    Solid Harmonics ordering:            Gaussian

*** tstart() called on cmpsrv002
*** at Thu Sep 19 14:26:18 2024

   => Loading Basis Set <=

    Name: THIS_BASIS
    Role: ORBITAL
    Keyword: BASIS
    atoms 1, 4-6 entry H          line    15 file /home/vance/anaconda3/envs/p4env/share/psi4/basis/def2-qzvp.gbs 
    atoms 2      entry BR         line  2253 file /home/vance/anaconda3/envs/p4env/share/psi4/basis/def2-qzvp.gbs 
    atoms 3      entry N          line   242 file /home/vance/anaconda3/envs/p4env/share/psi4/basis/def2-qzvp.gbs 


         ---------------------------------------------------------
                          SAPT(DFT): DFT Monomer B                 
         ---------------------------------------------------------
                                   SCF
               by Justin Turney, Rob Parrish, Andy Simmonett
                          and Daniel G. A. Smith
                              RKS Reference
                        4 Threads,   7629 MiB Core
         ---------------------------------------------------------

  ==> Geometry <==

    Molecular point group: c1
    Full point group: Cs

    Geometry (in Angstrom), charge = 0, multiplicity = 1:

       Center              X                  Y                   Z               Mass       
    ------------   -----------------  -----------------  -----------------  -----------------
      Gh(H)           0.000022767418    -0.932480036259     0.000000000000     1.007825032230
      Gh(BR)         -0.000007232582     0.581739963741     0.000000000000    78.918337600000
         N            0.000032767418    -2.578590036259     0.000000000000    14.003074004430
         H           -0.474347232582    -2.931060036259     0.821650000000     1.007825032230
         H           -0.474347232582    -2.931060036259    -0.821650000000     1.007825032230
         H            0.948782767418    -2.931060036259     0.000000000000     1.007825032230

  Running in c1 symmetry.

  Rotational constants: A =      6.19413  B =      0.11388  C =      0.11388 [cm^-1]
  Rotational constants: A = 185695.44926  B =   3414.07786  C =   3414.07743 [MHz]
  Nuclear repulsion =   11.945783476959880

  Charge       = 0
  Multiplicity = 1
  Electrons    = 10
  Nalpha       = 5
  Nbeta        = 5

  ==> Algorithm <==

  SCF Algorithm Type is DF.
  DIIS enabled.
  MOM disabled.
  Fractional occupation disabled.
  Guess Type is SAD.
  Energy threshold   = 1.00e-08
  Density threshold  = 1.00e-08
  Integral threshold = 1.00e-12

  ==> Primary Basis <==

  Basis Set: THIS_BASIS
    Blend: DEF2-QZVP
    Number of shells: 82
    Number of basis functions: 252
    Number of Cartesian functions: 303
    Spherical Harmonics?: true
    Max angular momentum: 4

  ==> DFT Potential <==

   => LibXC <=

    Version 6.2.2
    S. Lehtola, C. Steigemann, M. J.T. Oliveira, and M. A.L. Marques.,  SoftwareX 7, 15 (2018) (10.1016/j.softx.2017.11.002)

   => Composite Functional: PBE0 <= 

    PBE0 Hyb-GGA Exchange-Correlation Functional

    C. Adamo and V. Barone.,  J. Chem. Phys. 110, 6158 (1999) (10.1063/1.478522)
    M. Ernzerhof and G. E. Scuseria.,  J. Chem. Phys. 110, 5029 (1999) (10.1063/1.478401)

    Deriv               =              1
    GGA                 =           TRUE
    Meta                =          FALSE

    Exchange Hybrid     =           TRUE
    MP2 Hybrid          =          FALSE

   => Exchange Functionals <=

    0.7500   Perdew, Burke & Ernzerhof

   => Exact (HF) Exchange <=

    0.2500               HF 

   => Correlation Functionals <=

    1.0000   Perdew, Burke & Ernzerhof

   => LibXC Density Thresholds  <==

    XC_HYB_GGA_XC_PBEH:  1.00E-15 

   => Asymptotic Correction <=

    X Functional        =    XC_GGA_X_LB
    C Functional        =   XC_LDA_C_VWN
    Bulk Shift          =       0.113162
    GRAC Alpha          =       0.500000
    GRAC Beta           =      40.000000

   => Molecular Quadrature <=

    Radial Scheme          =       TREUTLER
    Pruning Scheme         =           NONE
    Nuclear Scheme         =       TREUTLER

    Blocking Scheme        =         OCTREE
    BS radius alpha        =              1
    Pruning alpha          =              1
    Radial Points          =             75
    Spherical Points       =            302
    Total Points           =         130206
    Total Blocks           =           1043
    Max Points             =            256
    Max Functions          =            239
    Weights Tolerance      =       1.00E-15

   => Loading Basis Set <=

    Name: (THIS_BASIS AUX)
    Role: JKFIT
    Keyword: DF_BASIS_SCF
    atoms 1, 4-6 entry H          line    18 file /home/vance/anaconda3/envs/p4env/share/psi4/basis/def2-universal-jkfit.gbs 
    atoms 2      entry BR         line  3124 file /home/vance/anaconda3/envs/p4env/share/psi4/basis/def2-universal-jkfit.gbs 
    atoms 3      entry N          line   258 file /home/vance/anaconda3/envs/p4env/share/psi4/basis/def2-universal-jkfit.gbs 

  ==> Integral Setup <==

  ==> DiskDFJK: Density-Fitted J/K Matrices <==

    J tasked:                  Yes
    K tasked:                  Yes
    wK tasked:                  No
    OpenMP threads:              4
    Integrals threads:           4
    Memory [MiB]:             4971
    Algorithm:                Core
    Integral Cache:           SAVE
    Schwarz Cutoff:          1E-12
    Fitting Condition:       1E-10

   => Auxiliary Basis Set <=

  Basis Set: (THIS_BASIS AUX)
    Blend: DEF2-UNIVERSAL-JKFIT
    Number of shells: 109
    Number of basis functions: 415
    Number of Cartesian functions: 544
    Spherical Harmonics?: true
    Max angular momentum: 5

  Cached 100.0% of DFT collocation blocks in 0.733 [GiB].

  Minimum eigenvalue in the overlap matrix is 1.0783672388E-04.
  Reciprocal condition number of the overlap matrix is 1.2760159736E-05.
    Using symmetric orthogonalization.

  ==> Pre-Iterations <==

  SCF Guess: Superposition of Atomic Densities via on-the-fly atomic UHF (no occupation information).

   -------------------------
    Irrep   Nso     Nmo    
   -------------------------
     A        252     252 
   -------------------------
    Total     252     252
   -------------------------

  ==> Iterations <==

                           Total Energy        Delta E     RMS |[F,P]|

   @DF-RKS iter SAD:   -56.06908405967917   -5.60691e+01   0.00000e+00 
   @DF-RKS iter   1:   -56.28003646691964   -2.10952e-01   3.08540e-03 ADIIS/DIIS
   @DF-RKS iter   2:   -56.01842325781664    2.61613e-01   4.04936e-03 ADIIS/DIIS
   @DF-RKS iter   3:   -56.51871417435489   -5.00291e-01   2.17167e-04 ADIIS/DIIS
   @DF-RKS iter   4:   -56.52021082377523   -1.49665e-03   1.88329e-05 DIIS
   @DF-RKS iter   5:   -56.52021800120146   -7.17743e-06   5.00821e-06 DIIS
   @DF-RKS iter   6:   -56.52021805364833   -5.24469e-08   1.97166e-07 DIIS
   @DF-RKS iter   7:   -56.52021801213230    4.15160e-08   2.50114e-08 DIIS
   @DF-RKS iter   8:   -56.52021800235754    9.77477e-09   3.00954e-09 DIIS
  Energy and wave function converged.


  ==> Post-Iterations <==

   Electrons on quadrature grid:
      Ntotal   =    9.9999933467 ; deviation = -6.653e-06 

    Orbital Energies [Eh]
    ---------------------

    Doubly Occupied:                                                      

       1A    -14.471606     2A     -0.987181     3A     -0.590933  
       4A     -0.590932     5A     -0.391626  

    Virtual:                                                              

       6A     -0.084367     7A     -0.015593     8A     -0.015592  
       9A      0.008955    10A      0.071995    11A      0.072001  
      12A      0.108239    13A      0.134576    14A      0.134578  
      15A      0.143718    16A      0.251494    17A      0.263305  
      18A      0.270645    19A      0.270645    20A      0.306525  
      21A      0.306526    22A      0.380522    23A      0.506452  
      24A      0.548038    25A      0.548040    26A      0.598458  
      27A      0.598472    28A      0.614569    29A      0.633095  
      30A      0.633116    31A      0.653887    32A      0.679171  
      33A      0.679182    34A      0.701119    35A      0.753512  
      36A      0.769868    37A      0.769875    38A      0.817371  
      39A      0.817381    40A      0.840890    41A      0.930886  
      42A      0.930898    43A      1.034939    44A      1.052062  
      45A      1.052063    46A      1.062767    47A      1.079258  
      48A      1.170625    49A      1.170628    50A      1.304679  
      51A      1.328801    52A      1.328808    53A      1.338974  
      54A      1.341101    55A      1.384716    56A      1.560038  
      57A      1.560040    58A      1.623614    59A      1.684347  
      60A      1.684356    61A      1.778214    62A      1.778216  
      63A      1.821285    64A      1.971071    65A      1.971077  
      66A      1.972825    67A      2.013175    68A      2.040666  
      69A      2.078740    70A      2.078748    71A      2.155814  
      72A      2.155814    73A      2.240549    74A      2.240551  
      75A      2.267785    76A      2.267786    77A      2.277174  
      78A      2.315581    79A      2.358458    80A      2.358463  
      81A      2.365738    82A      2.365746    83A      2.391971  
      84A      2.465758    85A      2.465759    86A      2.526086  
      87A      2.587761    88A      2.587762    89A      2.627577  
      90A      2.746475    91A      2.746480    92A      2.748721  
      93A      2.815868    94A      2.815875    95A      2.851126  
      96A      2.851128    97A      2.892976    98A      2.909840  
      99A      3.086390   100A      3.086390   101A      3.124040  
     102A      3.164262   103A      3.439300   104A      3.439309  
     105A      3.463767   106A      3.467583   107A      3.476951  
     108A      3.477402   109A      3.477417   110A      3.569947  
     111A      3.569950   112A      3.657738   113A      3.679699  
     114A      3.679715   115A      3.788359   116A      3.969484  
     117A      3.969490   118A      3.986533   119A      4.170597  
     120A      4.192490   121A      4.192503   122A      4.354567  
     123A      4.354567   124A      4.395802   125A      4.396277  
     126A      4.404505   127A      4.404513   128A      4.433067  
     129A      4.495296   130A      4.495297   131A      4.616916  
     132A      4.637430   133A      4.637433   134A      4.871905  
     135A      4.990734   136A      4.990744   137A      5.233573  
     138A      5.607278   139A      5.757049   140A      5.757067  
     141A      5.842671   142A      5.842673   143A      5.892198  
     144A      5.934716   145A      5.934728   146A      5.987041  
     147A      6.150005   148A      6.165729   149A      6.286926  
     150A      6.365020   151A      6.365033   152A      6.477671  
     153A      6.572990   154A      6.572990   155A      6.594194  
     156A      6.594199   157A      6.816253   158A      6.816259  
     159A      6.827163   160A      6.831598   161A      6.894695  
     162A      6.894697   163A      7.018698   164A      7.018702  
     165A      7.160109   166A      7.160123   167A      7.213777  
     168A      7.227076   169A      7.227093   170A      7.293526  
     171A      7.486672   172A      7.523120   173A      7.523125  
     174A      7.573893   175A      7.620025   176A      7.620033  
     177A      7.720954   178A      7.720964   179A      7.820171  
     180A      7.867954   181A      7.932291   182A      7.932302  
     183A      8.028517   184A      8.054053   185A      8.112825  
     186A      8.112833   187A      8.160839   188A      8.205133  
     189A      8.294899   190A      8.294909   191A      8.400844  
     192A      8.400855   193A      8.443570   194A      8.524864  
     195A      8.524878   196A      8.606226   197A      8.758713  
     198A      8.758849   199A      8.893746   200A      8.955035  
     201A      8.955036   202A      9.013942   203A      9.013950  
     204A      9.366212   205A      9.366212   206A      9.480236  
     207A      9.527171   208A      9.527179   209A      9.675507  
     210A      9.675510   211A      9.774007   212A      9.836728  
     213A      9.981901   214A      9.981907   215A     10.099410  
     216A     10.198866   217A     10.860997   218A     10.860997  
     219A     10.978878   220A     11.084185   221A     11.123015  
     222A     11.123034   223A     11.435560   224A     11.574827  
     225A     11.574841   226A     11.628777   227A     11.768387  
     228A     11.768431   229A     11.896437   230A     12.899408  
     231A     14.280089   232A     14.280090   233A     15.108382  
     234A     28.595646   235A     28.595646   236A     28.863410  
     237A     29.216743   238A     35.148352   239A     35.148352  
     240A     35.336124   241A     35.336124   242A     36.014193  
     243A     38.325142   244A     64.539733   245A    141.459413  
     246A    164.906250   247A    164.906250   248A    165.302281  
     249A    197.825097   250A    325.101006   251A    874.373540  
     252A   3948.531778  

    Final Occupation by Irrep:
              A 
    DOCC [     5 ]
    NA   [     5 ]
    NB   [     5 ]

  @DF-RKS Final Energy:   -56.52021800235754

   => Energetics <=

    Nuclear Repulsion Energy =             11.9457834769598801
    One-Electron Energy =                 -99.6866325761617134
    Two-Electron Energy =                  37.2636008773699459
    DFT Exchange-Correlation Energy =      -6.0429697805256453
    Empirical Dispersion Energy =           0.0000000000000000
    VV10 Nonlocal Energy =                  0.0000000000000000
    Total Energy =                        -56.5202180023575380

Computation Completed


Properties will be evaluated at   0.000000,   0.000000,   0.000000 [a0]

Properties computed using the SCF density matrix


 Multipole Moments:

 ------------------------------------------------------------------------------------
     Multipole            Electronic (a.u.)      Nuclear  (a.u.)        Total (a.u.)
 ------------------------------------------------------------------------------------

 L = 1.  Multiply by 2.5417464519 to convert [e a0] to [Debye]
 Dipole X            :         -0.0005957            0.0006003            0.0000046
 Dipole Y            :         50.1492029          -50.7265049           -0.5773020
 Dipole Z            :          0.0000000            0.0000000            0.0000000
 Magnitude           :                                                    0.5773020

 ------------------------------------------------------------------------------------

*** tstop() called on cmpsrv002 at Thu Sep 19 14:28:00 2024
Module time:
	user time   =      34.13 seconds =       0.57 minutes
	system time =       1.45 seconds =       0.02 minutes
	total time  =        102 seconds =       1.70 minutes
Total time:
	user time   =     100.56 seconds =       1.68 minutes
	system time =       7.25 seconds =       0.12 minutes
	total time  =        711 seconds =      11.85 minutes

         ---------------------------------------------------------
               SAPT(DFT): Intermolecular Interaction Segment       

                   by Daniel G. A. Smith and Rob Parrish           
         ---------------------------------------------------------

  ==> Algorithm <==

   SAPT DFT Functional             PBE0
   Monomer A GRAC Shift        0.106591
   Monomer B GRAC Shift        0.113162
   Delta HF                        True
   JK Algorithm                      DF

  ==> Preparing SAPT Data Cache <== 

  ==> DiskDFJK: Density-Fitted J/K Matrices <==

    J tasked:                  Yes
    K tasked:                  Yes
    wK tasked:                  No
    OpenMP threads:              4
    Integrals threads:           4
    Memory [MiB]:             4971
    Algorithm:                Core
    Integral Cache:           SAVE
    Schwarz Cutoff:          1E-12
    Fitting Condition:       1E-10

   => Auxiliary Basis Set <=

  Basis Set: (THIS_BASIS AUX)
    Blend: DEF2-UNIVERSAL-JKFIT
    Number of shells: 109
    Number of basis functions: 415
    Number of Cartesian functions: 544
    Spherical Harmonics?: true
    Max angular momentum: 5


  ==> E10 Electostatics <== 

    Elst10,r                        -39.02637399 [mEh]

  ==> E10 Exchange <== 

    Exch10(S^2)                      59.83625003 [mEh]
    Exch10                           62.75696489 [mEh]

  ==> E20 Induction <== 

   => Uncoupled Induction <= 

    Ind20,u (A<-B)                  -12.43899954 [mEh]
    Ind20,u (A->B)                  -23.67953819 [mEh]
    Ind20,u                         -36.11853773 [mEh]
    Exch-Ind20,u (A<-B)               8.45501037 [mEh]
    Exch-Ind20,u (A->B)              13.66675720 [mEh]
    Exch-Ind20,u                     22.12176758 [mEh]
    Exch-Ind20,u (A<-B) (S^inf)       9.37196248 [mEh]
    Exch-Ind20,u (A->B) (S^inf)      15.32191425 [mEh]
    Exch-Ind20,u (S^inf)             24.69387673 [mEh]

   => Coupled Induction <= 

   ---------------------------------------------------
              SAPT Coupled Induction Solver           
   ---------------------------------------------------
    Maxiter             =          20
    Convergence         =   1.000E-06
   ---------------------------------------------------
     Iter       (A<-B)           (B->A)      Time [s]
   ---------------------------------------------------
    Guess    1.655447e-01     1.112825e-01          5
        1    3.188531e-02     4.049077e-02         12
        2    1.484686e-02     1.447309e-02         19
        3    3.176328e-03     1.274352e-03         25
        4    3.378488e-04     1.034557e-04         28
        5    5.357034e-05     6.778667e-06         30
        6    3.564172e-06     6.535815e-07*        32
        7    3.813504e-07*    6.535815e-07*        33
   ---------------------------------------------------

    Ind20,r (A<-B)                  -12.52000107 [mEh]
    Ind20,r (A->B)                  -25.21009334 [mEh]
    Ind20,r                         -37.73009441 [mEh]
    Exch-Ind20,r (A<-B)               9.39553514 [mEh]
    Exch-Ind20,r (A->B)              15.16727333 [mEh]
    Exch-Ind20,r                     24.56280846 [mEh]
    Exch-Ind20,r (A<-B) (S^inf)      10.42584234 [mEh]
    Exch-Ind20,r (A->B) (S^inf)      17.02951953 [mEh]
    Exch-Ind20,r (S^inf)             27.45536187 [mEh]
   => Loading Basis Set <=

    Name: (THIS_BASIS AUX)
    Role: RIFIT
    Keyword: DF_BASIS_MP2
    atoms 1, 4-6 entry H          line    23 file /home/vance/anaconda3/envs/p4env/share/psi4/basis/def2-qzvp-ri.gbs 
    atoms 2      entry BR         line  2543 file /home/vance/anaconda3/envs/p4env/share/psi4/basis/def2-qzvp-ri.gbs 
    atoms 3      entry N          line   337 file /home/vance/anaconda3/envs/p4env/share/psi4/basis/def2-qzvp-ri.gbs 



  ==> E20 Dispersion (CHF FDDS) <== 

   Legendre Points:          10
   Lambda Shift:          0.300
   Fxc Kernal:             ALDA
   (P|Fxc|Q) Thresh:  1.000e-06
  DFHelper Memory: AOs need 0.451 GiB; user supplied 5.960 GiB. 
  Using in-core AOs.

  ==> DFHelper <==
    NBF:                             252
    NAux:                            961
    Schwarz Cutoff:                1E-12
    Mask sparsity (%):                 7
    DFH Avail. Memory [GiB]:       5.960
    OpenMP threads:                    4
    Algorithm:                    DIRECT
    AO Core:                        True
    MO Core:                       False
    Hold Metric:                   False
    Metric Power:                  0.000
    Fitting Condition:             1E-12
    Q Shell Max:                      13


  DFHelper Memory: AOs need 0.482 GiB; user supplied 5.960 GiB. 
  Using in-core AOs.


   => Time Integration <= 

       Omega       Weight       Disp20,u         Disp20   time [s]
   2.269e+01    6.667e-02      3.307e-04      3.110e-04          4
   4.147e+00    1.495e-01      5.581e-03      5.049e-03          8
   1.572e+00    2.191e-01      1.626e-02      1.362e-02         10
   7.589e-01    2.693e-01      2.656e-02      2.013e-02         12
   4.049e-01    2.955e-01      2.932e-02      2.027e-02         14
   2.223e-01    2.955e-01      2.419e-02      1.587e-02         16
   1.186e-01    2.693e-01      1.676e-02      1.078e-02         18
   5.727e-02    2.191e-01      1.053e-02      6.729e-03         19
   2.170e-02    1.495e-01      5.916e-03      3.774e-03         21
   3.966e-03    6.667e-02      2.362e-03      1.507e-03         22

    Disp20,u                        -21.93431084 [mEh]
    Disp20                          -15.60336696 [mEh]

  ==> E20 Dispersion (MP2) <== 


    Disp20 (MP2)                    -21.90027764 [mEh]
    Exch-Disp20,u                     4.70519047 [mEh]
    Scaling Scheme                    FIXED
    Scaling Factor                    0.770
    Est. Exch-Disp20,r                3.62299667 [mEh]

   SAPT(DFT) Results
  ---------------------------------------------------------------------------------------------------------
    Electrostatics                  -39.02637399 [mEh]    -24.48941941 [kcal/mol]   -102.46373081 [kJ/mol]
      Elst1,r                       -39.02637399 [mEh]    -24.48941941 [kcal/mol]   -102.46373081 [kJ/mol]

    Exchange                         62.75696489 [mEh]     39.38059001 [kcal/mol]    164.76838861 [kJ/mol]
      Exch1                          62.75696489 [mEh]     39.38059001 [kcal/mol]    164.76838861 [kJ/mol]
      Exch1(S^2)                     59.83625003 [mEh]     37.54781377 [kcal/mol]    157.10005282 [kJ/mol]

    Induction                       -30.00325841 [mEh]    -18.82732890 [kcal/mol]    -78.77354411 [kJ/mol]
      Ind2,r                        -37.73009441 [mEh]    -23.67599169 [kcal/mol]    -99.06034924 [kJ/mol]
      Exch-Ind2,r                    24.56280846 [mEh]     15.41339501 [kcal/mol]     64.48964474 [kJ/mol]
      Induction (A<-B)               -3.12446593 [mEh]     -1.96063197 [kcal/mol]     -8.20328418 [kJ/mol]
      Induction (A->B)              -10.04282002 [mEh]     -6.30196470 [kcal/mol]    -26.36742032 [kJ/mol]
      delta HF,r (2)                -16.83597246 [mEh]    -10.56473222 [kcal/mol]    -44.20283961 [kJ/mol]

    Dispersion                      -11.98037030 [mEh]     -7.51779586 [kcal/mol]    -31.45445788 [kJ/mol]
      Disp2,r                       -15.60336696 [mEh]     -9.79126059 [kcal/mol]    -40.96663431 [kJ/mol]
      Disp2,u                       -21.90027764 [mEh]    -13.74263170 [kcal/mol]    -57.49917102 [kJ/mol]
      Est. Exch-Disp2,r               3.62299667 [mEh]      2.27346473 [kcal/mol]      9.51217644 [kJ/mol]
      Exch-Disp2,u                    4.70519047 [mEh]      2.95255160 [kcal/mol]     12.35347589 [kJ/mol]

    Total SAPT(DFT)                 -18.25303782 [mEh]    -11.45395416 [kcal/mol]    -47.92334419 [kJ/mol]
  ---------------------------------------------------------------------------------------------------------

*** tstop() called on cmpsrv002 at Thu Sep 19 15:22:44 2024
Module time:
	user time   =     369.55 seconds =       6.16 minutes
	system time =      33.73 seconds =       0.56 minutes
	total time  =       3395 seconds =      56.58 minutes
Total time:
	user time   =     433.17 seconds =       7.22 minutes
	system time =      38.79 seconds =       0.65 minutes
	total time  =       4001 seconds =      66.68 minutes

    Psi4 stopped on: Thursday, 19 September 2024 03:22PM
    Psi4 wall time for execution: 1:06:41.45

*** Psi4 exiting successfully. Buy a developer a beer!
