
    -----------------------------------------------------------------------
          Psi4: An Open-Source Ab Initio Electronic Structure Package
                               Psi4 1.9.1 release

                         Git: Rev {} zzzzzzz 


    D. G. A. Smith, L. A. Burns, A. C. Simmonett, R. M. Parrish,
    M. C. Schieber, R. Galvelis, P. Kraus, H. Kruse, R. Di Remigio,
    A. Alenaizan, A. M. James, S. Lehtola, J. P. Misiewicz, M. Scheurer,
    R. A. Shaw, J. B. Schriber, Y. Xie, Z. L. Glick, D. A. Sirianni,
    J. S. O'Brien, J. M. Waldrop, A. Kumar, E. G. Hohenstein,
    B. P. Pritchard, B. R. Brooks, H. F. Schaefer III, A. Yu. Sokolov,
    K. Patkowski, A. E. DePrince III, U. Bozkaya, R. A. King,
    F. A. Evangelista, J. M. Turney, T. D. Crawford, C. D. Sherrill,
    J. Chem. Phys. 152(18) 184108 (2020). https://doi.org/10.1063/5.0006002

                            Additional Code Authors
    E. T. Seidl, C. L. Janssen, E. F. Valeev, M. L. Leininger,
    J. F. Gonthier, R. M. Richard, H. R. McAlexander, M. Saitow, X. Wang,
    P. Verma, M. H. Lechner, A. Jiang, S. Behnle, A. G. Heide,
    M. F. Herbst, and D. L. Poole

             Previous Authors, Complete List of Code Contributors,
                       and Citations for Specific Modules
    https://github.com/psi4/psi4/blob/master/codemeta.json
    https://github.com/psi4/psi4/graphs/contributors
    http://psicode.org/psi4manual/master/introduction.html#citing-psifour

    -----------------------------------------------------------------------


    Psi4 started on: Thursday, 19 September 2024 02:16PM

    Process ID: 605878
    Host:       cmpsrv002
    PSIDATADIR: /home/vance/anaconda3/envs/p4env/share/psi4
    Memory:     500.0 MiB
    Threads:    8
    
  ==> Input File <==

--------------------------------------------------------------------------
#charge=0 charge_a=0 charge_b=0 selection_a=1-2 selection_b=3-6 scaling=1.5 benchmark_Eint=-5.459 benchmark_unit=kcal/mol group=XH-N
set_num_threads(4)
memory 8 GB
basis this_basis {
    assign    def2-qzvp
}

molecule {
     0 1
    --
     0 1
     H        0.00002       -0.93248        0.00000
    Br       -0.00001        0.58174        0.00000
    --
     0 1
     N        0.00003       -3.40165        0.00000
     H       -0.47435       -3.75412        0.82165
     H       -0.47435       -3.75412       -0.82165
     H        0.94879       -3.75412        0.00000
}

set {
    sapt_dft_functional     PBE0
    scf_type                DF
    freeze_core             true
    sapt_dft_grac_shift_a    0.106591
    sapt_dft_grac_shift_b    0.113162
    sapt_dft_do_hybrid      true
    do_ind_exch_sinf        true
    do_disp_exch_sinf       true
}

nrg = energy('sapt(DFT)')
--------------------------------------------------------------------------
  Threads set to 4 by Python driver.

  Memory set to   7.451 GiB by Python driver.

Scratch directory: /scratch2/vance/psi4/

*** tstart() called on cmpsrv002
*** at Thu Sep 19 14:16:09 2024

  SAPT does not make use of molecular symmetry, further calculations in C1 point group.

         ---------------------------------------------------------
                            SAPT(DFT) Procedure                    

                           by Daniel G. A. Smith                   
         ---------------------------------------------------------

Warning! The default value of SAPT_DFT_EXCH_DISP_SCALE_SCHEME has changed from DISP to FIXED. Please be careful comparing results with earlier versions. 

  ==> Algorithm <==

   SAPT DFT Functional             PBE0
   Monomer A GRAC Shift        0.106591
   Monomer B GRAC Shift        0.113162
   Delta HF                        True
   JK Algorithm                      DF

   Required computations:
     HF  (Dimer)
     HF  (Monomer A)
     HF  (Monomer B)
     DFT (Monomer A)
     DFT (Monomer B)

   => Libint2 <=

    Primary   basis highest AM E, G, H:  6, 6, 3
    Auxiliary basis highest AM E, G, H:  7, 7, 4
    Onebody   basis highest AM E, G, H:  -, -, -
    Solid Harmonics ordering:            Gaussian

*** tstart() called on cmpsrv002
*** at Thu Sep 19 14:16:09 2024

   => Loading Basis Set <=

    Name: THIS_BASIS
    Role: ORBITAL
    Keyword: BASIS
    atoms 1, 4-6 entry H          line    15 file /home/vance/anaconda3/envs/p4env/share/psi4/basis/def2-qzvp.gbs 
    atoms 2      entry BR         line  2253 file /home/vance/anaconda3/envs/p4env/share/psi4/basis/def2-qzvp.gbs 
    atoms 3      entry N          line   242 file /home/vance/anaconda3/envs/p4env/share/psi4/basis/def2-qzvp.gbs 


         ---------------------------------------------------------
                         SAPT(DFT): delta HF Dimer                 
         ---------------------------------------------------------
                                   SCF
               by Justin Turney, Rob Parrish, Andy Simmonett
                          and Daniel G. A. Smith
                              RHF Reference
                        4 Threads,   7629 MiB Core
         ---------------------------------------------------------

  ==> Geometry <==

    Molecular point group: c1
    Full point group: C1

    Geometry (in Angstrom), charge = 0, multiplicity = 1:

       Center              X                  Y                   Z               Mass       
    ------------   -----------------  -----------------  -----------------  -----------------
         H            0.000022663468    -0.787936668130     0.000000000000     1.007825032230
         BR          -0.000007336532     0.726283331870     0.000000000000    78.918337600000
         N            0.000032663468    -3.257106668130     0.000000000000    14.003074004430
         H           -0.474347336532    -3.609576668130     0.821650000000     1.007825032230
         H           -0.474347336532    -3.609576668130    -0.821650000000     1.007825032230
         H            0.948792663468    -3.609576668130     0.000000000000     1.007825032230

  Running in c1 symmetry.

  Rotational constants: A =      6.19409  B =      0.07280  C =      0.07280 [cm^-1]
  Rotational constants: A = 185694.14443  B =   2182.46936  C =   2182.46935 [MHz]
  Nuclear repulsion =   71.276700276963282

  Charge       = 0
  Multiplicity = 1
  Electrons    = 46
  Nalpha       = 23
  Nbeta        = 23

  ==> Algorithm <==

  SCF Algorithm Type is DF.
  DIIS enabled.
  MOM disabled.
  Fractional occupation disabled.
  Guess Type is SAD.
  Energy threshold   = 1.00e-08
  Density threshold  = 1.00e-08
  Integral threshold = 1.00e-12

  ==> Primary Basis <==

  Basis Set: THIS_BASIS
    Blend: DEF2-QZVP
    Number of shells: 82
    Number of basis functions: 252
    Number of Cartesian functions: 303
    Spherical Harmonics?: true
    Max angular momentum: 4

   => Loading Basis Set <=

    Name: (THIS_BASIS AUX)
    Role: JKFIT
    Keyword: DF_BASIS_SCF
    atoms 1, 4-6 entry H          line    18 file /home/vance/anaconda3/envs/p4env/share/psi4/basis/def2-universal-jkfit.gbs 
    atoms 2      entry BR         line  3124 file /home/vance/anaconda3/envs/p4env/share/psi4/basis/def2-universal-jkfit.gbs 
    atoms 3      entry N          line   258 file /home/vance/anaconda3/envs/p4env/share/psi4/basis/def2-universal-jkfit.gbs 

  ==> Integral Setup <==

  ==> DiskDFJK: Density-Fitted J/K Matrices <==

    J tasked:                  Yes
    K tasked:                  Yes
    wK tasked:                  No
    OpenMP threads:              4
    Integrals threads:           4
    Memory [MiB]:             5722
    Algorithm:                Core
    Integral Cache:           SAVE
    Schwarz Cutoff:          1E-12
    Fitting Condition:       1E-10

   => Auxiliary Basis Set <=

  Basis Set: (THIS_BASIS AUX)
    Blend: DEF2-UNIVERSAL-JKFIT
    Number of shells: 109
    Number of basis functions: 415
    Number of Cartesian functions: 544
    Spherical Harmonics?: true
    Max angular momentum: 5

  Minimum eigenvalue in the overlap matrix is 1.4611521102E-04.
  Reciprocal condition number of the overlap matrix is 1.8223133520E-05.
    Using symmetric orthogonalization.

  ==> Pre-Iterations <==

  SCF Guess: Superposition of Atomic Densities via on-the-fly atomic UHF (no occupation information).

   -------------------------
    Irrep   Nso     Nmo    
   -------------------------
     A        252     252 
   -------------------------
    Total     252     252
   -------------------------

  ==> Iterations <==

                           Total Energy        Delta E     RMS |[F,P]|

   @DF-RHF iter SAD: -2626.78625524603603   -2.62679e+03   0.00000e+00 
   @DF-RHF iter   1: -2628.89381758902346   -2.10756e+00   7.03840e-03 ADIIS/DIIS
   @DF-RHF iter   2: -2629.14390576479354   -2.50088e-01   4.63005e-03 ADIIS/DIIS
   @DF-RHF iter   3: -2629.27631060610611   -1.32405e-01   1.57084e-04 ADIIS/DIIS
   @DF-RHF iter   4: -2629.27735491399244   -1.04431e-03   5.05710e-05 DIIS
   @DF-RHF iter   5: -2629.27749159981522   -1.36686e-04   1.70854e-05 DIIS
   @DF-RHF iter   6: -2629.27750912907049   -1.75293e-05   5.32629e-06 DIIS
   @DF-RHF iter   7: -2629.27751066094879   -1.53188e-06   1.10226e-06 DIIS
   @DF-RHF iter   8: -2629.27751078319761   -1.22249e-07   3.30051e-07 DIIS
   @DF-RHF iter   9: -2629.27751079058453   -7.38692e-09   5.93094e-08 DIIS
   @DF-RHF iter  10: -2629.27751079089194   -3.07409e-10   1.03687e-08 DIIS
   @DF-RHF iter  11: -2629.27751079090422   -1.22782e-11   2.84492e-09 DIIS
  Energy and wave function converged.


  ==> Post-Iterations <==

    Orbital Energies [Eh]
    ---------------------

    Doubly Occupied:                                                      

       1A   -490.015728     2A    -65.155465     3A    -58.510928  
       4A    -58.509679     5A    -58.509679     6A    -15.560825  
       7A     -9.827493     8A     -7.438534     9A     -7.432728  
      10A     -7.432728    11A     -3.182207    12A     -3.178830  
      13A     -3.178830    14A     -3.171233    15A     -3.171233  
      16A     -1.160812    17A     -0.998465    18A     -0.652704  
      19A     -0.652704    20A     -0.545247    21A     -0.445507  
      22A     -0.412564    23A     -0.412564  

    Virtual:                                                              

      24A      0.088815    25A      0.141221    26A      0.147447  
      27A      0.147447    28A      0.237276    29A      0.266946  
      30A      0.266946    31A      0.277396    32A      0.316162  
      33A      0.316162    34A      0.333647    35A      0.444533  
      36A      0.444533    37A      0.493318    38A      0.493318  
      39A      0.498506    40A      0.509491    41A      0.509491  
      42A      0.538775    43A      0.544589    44A      0.544589  
      45A      0.602039    46A      0.786920    47A      0.798978  
      48A      0.798978    49A      0.852221    50A      0.914531  
      51A      0.914532    52A      0.921006    53A      1.011827  
      54A      1.011827    55A      1.052810    56A      1.059083  
      57A      1.059083    58A      1.081573    59A      1.178755  
      60A      1.205554    61A      1.205554    62A      1.221083  
      63A      1.229855    64A      1.229870    65A      1.253602  
      66A      1.253602    67A      1.281602    68A      1.281602  
      69A      1.386972    70A      1.389928    71A      1.389928  
      72A      1.432188    73A      1.441901    74A      1.441902  
      75A      1.574075    76A      1.716201    77A      1.716201  
      78A      1.735758    79A      1.735758    80A      1.806986  
      81A      1.857669    82A      1.857669    83A      1.925926  
      84A      2.194371    85A      2.194371    86A      2.209925  
      87A      2.285562    88A      2.285562    89A      2.324957  
      90A      2.376501    91A      2.393292    92A      2.393292  
      93A      2.436191    94A      2.482139    95A      2.482140  
      96A      2.505959    97A      2.505960    98A      2.582636  
      99A      2.582636   100A      2.629623   101A      2.629623  
     102A      2.702196   103A      2.761761   104A      2.761761  
     105A      2.773296   106A      2.848624   107A      2.848625  
     108A      2.866541   109A      2.949794   110A      3.011514  
     111A      3.012982   112A      3.013023   113A      3.030863  
     114A      3.030863   115A      3.038606   116A      3.038606  
     117A      3.053192   118A      3.053192   119A      3.085042  
     120A      3.085050   121A      3.113254   122A      3.166852  
     123A      3.166852   124A      3.212119   125A      3.212120  
     126A      3.214447   127A      3.227736   128A      3.227737  
     129A      3.444677   130A      3.516062   131A      3.516062  
     132A      3.582061   133A      3.695197   134A      3.802511  
     135A      3.802511   136A      3.866776   137A      3.941267  
     138A      3.941268   139A      4.031043   140A      4.168221  
     141A      4.319480   142A      4.319480   143A      4.357147  
     144A      4.357147   145A      4.553437   146A      4.614131  
     147A      4.614131   148A      4.629446   149A      5.075664  
     150A      5.401179   151A      5.401179   152A      5.460187  
     153A      5.460187   154A      5.478704   155A      5.514468  
     156A      5.514468   157A      6.075182   158A      6.075263  
     159A      6.139439   160A      6.139439   161A      6.240695  
     162A      6.240696   163A      6.270777   164A      6.307981  
     165A      6.345902   166A      6.345902   167A      6.367204  
     168A      6.367205   169A      6.658638   170A      6.769597  
     171A      6.911261   172A      6.911261   173A      6.925953  
     174A      6.974327   175A      6.974327   176A      7.099068  
     177A      7.099068   178A      7.245564   179A      7.305243  
     180A      7.330055   181A      7.330055   182A      7.560579  
     183A      7.573064   184A      7.573064   185A      7.638264  
     186A      7.671729   187A      7.671729   188A      7.866984  
     189A      7.964967   190A      7.964967   191A      7.974279  
     192A      8.055993   193A      8.055993   194A      8.117909  
     195A      8.117909   196A      8.230947   197A      8.230948  
     198A      8.273878   199A      8.273878   200A      8.275038  
     201A      8.324119   202A      8.355183   203A      8.355184  
     204A      8.457659   205A      8.496337   206A      8.512202  
     207A      8.637247   208A      8.662142   209A      8.662142  
     210A      8.770394   211A      8.770395   212A      8.825955  
     213A      8.881535   214A      8.881535   215A      8.929068  
     216A      9.026848   217A      9.026848   218A      9.169424  
     219A      9.420908   220A      9.525489   221A      9.525489  
     222A      9.769761   223A      9.809729   224A      9.809729  
     225A     10.073347   226A     10.105576   227A     10.105576  
     228A     10.290820   229A     10.515804   230A     10.515804  
     231A     10.568619   232A     11.585196   233A     11.677205  
     234A     11.677206   235A     12.070880   236A     12.105786  
     237A     12.105786   238A     12.283832   239A     12.283833  
     240A     12.449908   241A     14.442117   242A     14.442117  
     243A     14.753004   244A     14.814979   245A     14.814979  
     246A     15.693728   247A     30.140273   248A     39.390651  
     249A     96.649407   250A    200.500231   251A    325.172943  
     252A   1828.084083  

    Final Occupation by Irrep:
              A 
    DOCC [    23 ]
    NA   [    23 ]
    NB   [    23 ]

  @DF-RHF Final Energy: -2629.27751079090422

   => Energetics <=

    Nuclear Repulsion Energy =             71.2767002769632825
    One-Electron Energy =               -3801.9950493946394090
    Two-Electron Energy =                1101.4408383267718818
    Total Energy =                      -2629.2775107909042163

Computation Completed


Properties will be evaluated at   0.000000,   0.000000,   0.000000 [a0]

Properties computed using the SCF density matrix


 Multipole Moments:

 ------------------------------------------------------------------------------------
     Multipole            Electronic (a.u.)      Nuclear  (a.u.)        Total (a.u.)
 ------------------------------------------------------------------------------------

 L = 1.  Multiply by 2.5417464519 to convert [e a0] to [Debye]
 Dipole X            :         -0.0001632            0.0001748            0.0000116
 Dipole Y            :         15.6536705          -17.0009149           -1.3472444
 Dipole Z            :          0.0000000            0.0000000            0.0000000
 Magnitude           :                                                    1.3472444

 ------------------------------------------------------------------------------------

*** tstop() called on cmpsrv002 at Thu Sep 19 14:19:26 2024
Module time:
	user time   =      14.93 seconds =       0.25 minutes
	system time =       1.65 seconds =       0.03 minutes
	total time  =        197 seconds =       3.28 minutes
Total time:
	user time   =      14.98 seconds =       0.25 minutes
	system time =       1.65 seconds =       0.03 minutes
	total time  =        197 seconds =       3.28 minutes
   => Libint2 <=

    Primary   basis highest AM E, G, H:  6, 6, 3
    Auxiliary basis highest AM E, G, H:  7, 7, 4
    Onebody   basis highest AM E, G, H:  -, -, -
    Solid Harmonics ordering:            Gaussian

*** tstart() called on cmpsrv002
*** at Thu Sep 19 14:19:26 2024

   => Loading Basis Set <=

    Name: THIS_BASIS
    Role: ORBITAL
    Keyword: BASIS
    atoms 1, 4-6 entry H          line    15 file /home/vance/anaconda3/envs/p4env/share/psi4/basis/def2-qzvp.gbs 
    atoms 2      entry BR         line  2253 file /home/vance/anaconda3/envs/p4env/share/psi4/basis/def2-qzvp.gbs 
    atoms 3      entry N          line   242 file /home/vance/anaconda3/envs/p4env/share/psi4/basis/def2-qzvp.gbs 


         ---------------------------------------------------------
                       SAPT(DFT): delta HF Monomer A               
         ---------------------------------------------------------
                                   SCF
               by Justin Turney, Rob Parrish, Andy Simmonett
                          and Daniel G. A. Smith
                              RHF Reference
                        4 Threads,   7629 MiB Core
         ---------------------------------------------------------

  ==> Geometry <==

    Molecular point group: c1
    Full point group: C1

    Geometry (in Angstrom), charge = 0, multiplicity = 1:

       Center              X                  Y                   Z               Mass       
    ------------   -----------------  -----------------  -----------------  -----------------
         H            0.000022663468    -0.787936668130     0.000000000000     1.007825032230
         BR          -0.000007336532     0.726283331870     0.000000000000    78.918337600000
      Gh(N)           0.000032663468    -3.257106668130     0.000000000000    14.003074004430
      Gh(H)          -0.474347336532    -3.609576668130     0.821650000000     1.007825032230
      Gh(H)          -0.474347336532    -3.609576668130    -0.821650000000     1.007825032230
      Gh(H)           0.948792663468    -3.609576668130     0.000000000000     1.007825032230

  Running in c1 symmetry.

  Rotational constants: A =      6.19409  B =      0.07280  C =      0.07280 [cm^-1]
  Rotational constants: A = 185694.14443  B =   2182.46936  C =   2182.46935 [MHz]
  Nuclear repulsion =   12.231513498576831

  Charge       = 0
  Multiplicity = 1
  Electrons    = 36
  Nalpha       = 18
  Nbeta        = 18

  ==> Algorithm <==

  SCF Algorithm Type is DF.
  DIIS enabled.
  MOM disabled.
  Fractional occupation disabled.
  Guess Type is SAD.
  Energy threshold   = 1.00e-08
  Density threshold  = 1.00e-08
  Integral threshold = 1.00e-12

  ==> Primary Basis <==

  Basis Set: THIS_BASIS
    Blend: DEF2-QZVP
    Number of shells: 82
    Number of basis functions: 252
    Number of Cartesian functions: 303
    Spherical Harmonics?: true
    Max angular momentum: 4

   => Loading Basis Set <=

    Name: (THIS_BASIS AUX)
    Role: JKFIT
    Keyword: DF_BASIS_SCF
    atoms 1, 4-6 entry H          line    18 file /home/vance/anaconda3/envs/p4env/share/psi4/basis/def2-universal-jkfit.gbs 
    atoms 2      entry BR         line  3124 file /home/vance/anaconda3/envs/p4env/share/psi4/basis/def2-universal-jkfit.gbs 
    atoms 3      entry N          line   258 file /home/vance/anaconda3/envs/p4env/share/psi4/basis/def2-universal-jkfit.gbs 

  ==> Integral Setup <==

  ==> DiskDFJK: Density-Fitted J/K Matrices <==

    J tasked:                  Yes
    K tasked:                  Yes
    wK tasked:                  No
    OpenMP threads:              4
    Integrals threads:           4
    Memory [MiB]:             5722
    Algorithm:                Core
    Integral Cache:           SAVE
    Schwarz Cutoff:          1E-12
    Fitting Condition:       1E-10

   => Auxiliary Basis Set <=

  Basis Set: (THIS_BASIS AUX)
    Blend: DEF2-UNIVERSAL-JKFIT
    Number of shells: 109
    Number of basis functions: 415
    Number of Cartesian functions: 544
    Spherical Harmonics?: true
    Max angular momentum: 5

  Minimum eigenvalue in the overlap matrix is 1.4611521102E-04.
  Reciprocal condition number of the overlap matrix is 1.8223133520E-05.
    Using symmetric orthogonalization.

  ==> Pre-Iterations <==

  SCF Guess: Superposition of Atomic Densities via on-the-fly atomic UHF (no occupation information).

   -------------------------
    Irrep   Nso     Nmo    
   -------------------------
     A        252     252 
   -------------------------
    Total     252     252
   -------------------------

  ==> Iterations <==

                           Total Energy        Delta E     RMS |[F,P]|

   @DF-RHF iter SAD: -2571.10346017964457   -2.57110e+03   0.00000e+00 
   @DF-RHF iter   1: -2572.74132597014614   -1.63787e+00   6.82355e-03 ADIIS/DIIS
   @DF-RHF iter   2: -2572.93159779363441   -1.90272e-01   4.54454e-03 ADIIS/DIIS
   @DF-RHF iter   3: -2573.04562912703068   -1.14031e-01   1.02236e-04 ADIIS/DIIS
   @DF-RHF iter   4: -2573.04612671646191   -4.97589e-04   3.63282e-05 DIIS
   @DF-RHF iter   5: -2573.04620807168340   -8.13552e-05   1.04152e-05 DIIS
   @DF-RHF iter   6: -2573.04621789394514   -9.82226e-06   2.14565e-06 DIIS
   @DF-RHF iter   7: -2573.04621818801706   -2.94072e-07   3.97636e-07 DIIS
   @DF-RHF iter   8: -2573.04621819777549   -9.75842e-09   5.55577e-08 DIIS
   @DF-RHF iter   9: -2573.04621819805334   -2.77851e-10   7.55977e-09 DIIS
  Energy and wave function converged.


  ==> Post-Iterations <==

    Orbital Energies [Eh]
    ---------------------

    Doubly Occupied:                                                      

       1A   -490.040275     2A    -65.179801     3A    -58.535380  
       4A    -58.533923     5A    -58.533923     6A     -9.851686  
       7A     -7.463117     8A     -7.456543     9A     -7.456543  
      10A     -3.207033    11A     -3.203286    12A     -3.203286  
      13A     -3.194676    14A     -3.194676    15A     -1.020383  
      16A     -0.564632    17A     -0.433460    18A     -0.433460  

    Virtual:                                                              

      19A      0.051405    20A      0.113187    21A      0.138476  
      22A      0.138476    23A      0.217186    24A      0.232958  
      25A      0.266615    26A      0.266616    27A      0.314646  
      28A      0.314646    29A      0.324328    30A      0.340500  
      31A      0.426640    32A      0.426640    33A      0.475913  
      34A      0.475913    35A      0.540780    36A      0.544437  
      37A      0.544437    38A      0.561069    39A      0.651758  
      40A      0.651758    41A      0.758802    42A      0.802946  
      43A      0.802946    44A      0.889877    45A      0.903132  
      46A      0.944852    47A      0.964284    48A      0.964285  
      49A      0.998446    50A      1.075165    51A      1.075165  
      52A      1.081739    53A      1.112319    54A      1.112319  
      55A      1.185736    56A      1.185736    57A      1.211288  
      58A      1.211291    59A      1.233014    60A      1.255591  
      61A      1.255591    62A      1.287541    63A      1.356029  
      64A      1.356029    65A      1.382244    66A      1.382244  
      67A      1.431010    68A      1.481521    69A      1.481521  
      70A      1.507828    71A      1.695678    72A      1.695678  
      73A      1.702885    74A      1.718909    75A      1.718909  
      76A      1.910676    77A      2.024573    78A      2.126380  
      79A      2.126380    80A      2.171267    81A      2.171267  
      82A      2.270523    83A      2.399130    84A      2.399130  
      85A      2.447266    86A      2.447266    87A      2.471030  
      88A      2.522399    89A      2.533826    90A      2.533826  
      91A      2.570616    92A      2.659556    93A      2.659556  
      94A      2.685441    95A      2.733827    96A      2.733828  
      97A      2.797076    98A      2.813746    99A      2.813747  
     100A      2.855964   101A      2.855965   102A      2.942019  
     103A      2.942019   104A      2.964493   105A      2.991516  
     106A      2.991517   107A      3.010815   108A      3.010815  
     109A      3.028423   110A      3.028423   111A      3.052172  
     112A      3.064200   113A      3.064212   114A      3.095529  
     115A      3.095529   116A      3.127312   117A      3.203986  
     118A      3.203987   119A      3.254312   120A      3.254313  
     121A      3.292416   122A      3.343384   123A      3.427368  
     124A      3.440832   125A      3.440832   126A      3.718123  
     127A      3.718123   128A      3.743625   129A      3.796560  
     130A      3.796560   131A      3.853374   132A      3.899540  
     133A      3.937007   134A      3.937008   135A      4.264027  
     136A      4.308221   137A      4.308221   138A      4.397111  
     139A      4.415338   140A      4.549682   141A      4.549682  
     142A      4.582452   143A      5.054926   144A      5.054926  
     145A      5.402047   146A      5.438075   147A      5.438075  
     148A      5.459673   149A      5.489094   150A      5.489094  
     151A      6.010716   152A      6.010717   153A      6.049382  
     154A      6.049513   155A      6.336287   156A      6.336287  
     157A      6.432584   158A      6.432584   159A      6.462837  
     160A      6.462837   161A      6.535858   162A      6.555384  
     163A      6.690031   164A      6.754167   165A      6.754167  
     166A      6.942246   167A      6.942246   168A      7.133471  
     169A      7.133472   170A      7.229113   171A      7.381898  
     172A      7.381898   173A      7.402586   174A      7.575953  
     175A      7.647798   176A      7.778188   177A      7.778188  
     178A      7.927915   179A      8.026267   180A      8.026267  
     181A      8.137631   182A      8.141555   183A      8.141555  
     184A      8.202038   185A      8.202039   186A      8.257012  
     187A      8.357158   188A      8.446926   189A      8.446926  
     190A      8.487924   191A      8.575028   192A      8.575029  
     193A      8.700234   194A      8.700234   195A      8.750740  
     196A      8.750740   197A      8.761040   198A      8.795260  
     199A      8.953802   200A      8.968607   201A      8.968608  
     202A      8.979444   203A      8.979445   204A      8.993320  
     205A      9.127340   206A      9.167960   207A      9.315187  
     208A      9.315187   209A      9.483879   210A      9.541786  
     211A      9.693928   212A      9.693928   213A      9.771388  
     214A      9.960358   215A     10.079171   216A     10.079172  
     217A     10.182910   218A     10.182910   219A     10.267570  
     220A     10.678115   221A     10.678116   222A     11.004251  
     223A     11.004252   224A     11.204670   225A     11.307612  
     226A     11.752325   227A     11.752325   228A     12.352700  
     229A     12.352701   230A     12.759842   231A     13.690168  
     232A     13.853447   233A     13.853448   234A     14.123599  
     235A     14.281969   236A     14.281969   237A     14.419250  
     238A     14.419250   239A     14.566100   240A     14.566101  
     241A     14.570317   242A     14.729675   243A     16.011087  
     244A     18.186847   245A     18.186849   246A     25.518345  
     247A     30.116836   248A     70.280048   249A     96.625295  
     250A    318.632159   251A    325.148979   252A   1828.059586  

    Final Occupation by Irrep:
              A 
    DOCC [    18 ]
    NA   [    18 ]
    NB   [    18 ]

  @DF-RHF Final Energy: -2573.04621819805334

   => Energetics <=

    Nuclear Repulsion Energy =             12.2315134985768310
    One-Electron Energy =               -3607.5433030986487211
    Two-Electron Energy =                1022.2655714020188498
    Total Energy =                      -2573.0462181980528840

Computation Completed


Properties will be evaluated at   0.000000,   0.000000,   0.000000 [a0]

Properties computed using the SCF density matrix


 Multipole Moments:

 ------------------------------------------------------------------------------------
     Multipole            Electronic (a.u.)      Nuclear  (a.u.)        Total (a.u.)
 ------------------------------------------------------------------------------------

 L = 1.  Multiply by 2.5417464519 to convert [e a0] to [Debye]
 Dipole X            :          0.0004506           -0.0004424            0.0000081
 Dipole Y            :        -46.9580139           46.5476960           -0.4103179
 Dipole Z            :         -0.0000000            0.0000000           -0.0000000
 Magnitude           :                                                    0.4103179

 ------------------------------------------------------------------------------------

*** tstop() called on cmpsrv002 at Thu Sep 19 14:20:56 2024
Module time:
	user time   =      11.42 seconds =       0.19 minutes
	system time =       1.17 seconds =       0.02 minutes
	total time  =         90 seconds =       1.50 minutes
Total time:
	user time   =      26.40 seconds =       0.44 minutes
	system time =       2.82 seconds =       0.05 minutes
	total time  =        287 seconds =       4.78 minutes
   => Libint2 <=

    Primary   basis highest AM E, G, H:  6, 6, 3
    Auxiliary basis highest AM E, G, H:  7, 7, 4
    Onebody   basis highest AM E, G, H:  -, -, -
    Solid Harmonics ordering:            Gaussian

*** tstart() called on cmpsrv002
*** at Thu Sep 19 14:20:56 2024

   => Loading Basis Set <=

    Name: THIS_BASIS
    Role: ORBITAL
    Keyword: BASIS
    atoms 1, 4-6 entry H          line    15 file /home/vance/anaconda3/envs/p4env/share/psi4/basis/def2-qzvp.gbs 
    atoms 2      entry BR         line  2253 file /home/vance/anaconda3/envs/p4env/share/psi4/basis/def2-qzvp.gbs 
    atoms 3      entry N          line   242 file /home/vance/anaconda3/envs/p4env/share/psi4/basis/def2-qzvp.gbs 


         ---------------------------------------------------------
                       SAPT(DFT): delta HF Monomer B               
         ---------------------------------------------------------
                                   SCF
               by Justin Turney, Rob Parrish, Andy Simmonett
                          and Daniel G. A. Smith
                              RHF Reference
                        4 Threads,   7629 MiB Core
         ---------------------------------------------------------

  ==> Geometry <==

    Molecular point group: c1
    Full point group: C1

    Geometry (in Angstrom), charge = 0, multiplicity = 1:

       Center              X                  Y                   Z               Mass       
    ------------   -----------------  -----------------  -----------------  -----------------
      Gh(H)           0.000022663468    -0.787936668130     0.000000000000     1.007825032230
      Gh(BR)         -0.000007336532     0.726283331870     0.000000000000    78.918337600000
         N            0.000032663468    -3.257106668130     0.000000000000    14.003074004430
         H           -0.474347336532    -3.609576668130     0.821650000000     1.007825032230
         H           -0.474347336532    -3.609576668130    -0.821650000000     1.007825032230
         H            0.948792663468    -3.609576668130     0.000000000000     1.007825032230

  Running in c1 symmetry.

  Rotational constants: A =      6.19409  B =      0.07280  C =      0.07280 [cm^-1]
  Rotational constants: A = 185694.14443  B =   2182.46936  C =   2182.46935 [MHz]
  Nuclear repulsion =   11.945746185352998

  Charge       = 0
  Multiplicity = 1
  Electrons    = 10
  Nalpha       = 5
  Nbeta        = 5

  ==> Algorithm <==

  SCF Algorithm Type is DF.
  DIIS enabled.
  MOM disabled.
  Fractional occupation disabled.
  Guess Type is SAD.
  Energy threshold   = 1.00e-08
  Density threshold  = 1.00e-08
  Integral threshold = 1.00e-12

  ==> Primary Basis <==

  Basis Set: THIS_BASIS
    Blend: DEF2-QZVP
    Number of shells: 82
    Number of basis functions: 252
    Number of Cartesian functions: 303
    Spherical Harmonics?: true
    Max angular momentum: 4

   => Loading Basis Set <=

    Name: (THIS_BASIS AUX)
    Role: JKFIT
    Keyword: DF_BASIS_SCF
    atoms 1, 4-6 entry H          line    18 file /home/vance/anaconda3/envs/p4env/share/psi4/basis/def2-universal-jkfit.gbs 
    atoms 2      entry BR         line  3124 file /home/vance/anaconda3/envs/p4env/share/psi4/basis/def2-universal-jkfit.gbs 
    atoms 3      entry N          line   258 file /home/vance/anaconda3/envs/p4env/share/psi4/basis/def2-universal-jkfit.gbs 

  ==> Integral Setup <==

  ==> DiskDFJK: Density-Fitted J/K Matrices <==

    J tasked:                  Yes
    K tasked:                  Yes
    wK tasked:                  No
    OpenMP threads:              4
    Integrals threads:           4
    Memory [MiB]:             5722
    Algorithm:                Core
    Integral Cache:           SAVE
    Schwarz Cutoff:          1E-12
    Fitting Condition:       1E-10

   => Auxiliary Basis Set <=

  Basis Set: (THIS_BASIS AUX)
    Blend: DEF2-UNIVERSAL-JKFIT
    Number of shells: 109
    Number of basis functions: 415
    Number of Cartesian functions: 544
    Spherical Harmonics?: true
    Max angular momentum: 5

  Minimum eigenvalue in the overlap matrix is 1.4611521102E-04.
  Reciprocal condition number of the overlap matrix is 1.8223133520E-05.
    Using symmetric orthogonalization.

  ==> Pre-Iterations <==

  SCF Guess: Superposition of Atomic Densities via on-the-fly atomic UHF (no occupation information).

   -------------------------
    Irrep   Nso     Nmo    
   -------------------------
     A        252     252 
   -------------------------
    Total     252     252
   -------------------------

  ==> Iterations <==

                           Total Energy        Delta E     RMS |[F,P]|

   @DF-RHF iter SAD:   -55.65137735961363   -5.56514e+01   0.00000e+00 
   @DF-RHF iter   1:   -56.12998711444230   -4.78610e-01   1.82281e-03 ADIIS/DIIS
   @DF-RHF iter   2:   -56.19695151861271   -6.69644e-02   1.05043e-03 ADIIS/DIIS
   @DF-RHF iter   3:   -56.22377811723097   -2.68266e-02   9.74161e-05 DIIS
   @DF-RHF iter   4:   -56.22440567450642   -6.27557e-04   1.80701e-05 DIIS
   @DF-RHF iter   5:   -56.22442606115114   -2.03866e-05   3.36300e-06 DIIS
   @DF-RHF iter   6:   -56.22442725691037   -1.19576e-06   8.53728e-07 DIIS
   @DF-RHF iter   7:   -56.22442733867305   -8.17627e-08   1.88890e-07 DIIS
   @DF-RHF iter   8:   -56.22442734296338   -4.29034e-09   3.00480e-08 DIIS
   @DF-RHF iter   9:   -56.22442734307162   -1.08237e-10   8.45416e-09 DIIS
  Energy and wave function converged.


  ==> Post-Iterations <==

    Orbital Energies [Eh]
    ---------------------

    Doubly Occupied:                                                      

       1A    -15.538332     2A     -1.138572     3A     -0.631134  
       4A     -0.631134     5A     -0.423955  

    Virtual:                                                              

       6A      0.096409     7A      0.119336     8A      0.156029  
       9A      0.156029    10A      0.190842    11A      0.190842  
      12A      0.204442    13A      0.323519    14A      0.323519  
      15A      0.325301    16A      0.364062    17A      0.482033  
      18A      0.519010    19A      0.522018    20A      0.522018  
      21A      0.550063    22A      0.550063    23A      0.627873  
      24A      0.671278    25A      0.671278    26A      0.713189  
      27A      0.713190    28A      0.740412    29A      0.740412  
      30A      0.763134    31A      0.811976    32A      0.868231  
      33A      0.889828    34A      0.889828    35A      0.921165  
      36A      0.978449    37A      0.978450    38A      1.052149  
      39A      1.075926    40A      1.075927    41A      1.082781  
      42A      1.082781    43A      1.148992    44A      1.253398  
      45A      1.292312    46A      1.292312    47A      1.321184  
      48A      1.403866    49A      1.429361    50A      1.429361  
      51A      1.440102    52A      1.440103    53A      1.443929  
      54A      1.443934    55A      1.523334    56A      1.662412  
      57A      1.662412    58A      1.730939    59A      1.843809  
      60A      1.843809    61A      1.915491    62A      1.915491  
      63A      1.964622    64A      2.035007    65A      2.239536  
      66A      2.303554    67A      2.303554    68A      2.342857  
      69A      2.395692    70A      2.398342    71A      2.398343  
      72A      2.400712    73A      2.400712    74A      2.439239  
      75A      2.464322    76A      2.464322    77A      2.494762  
      78A      2.494763    79A      2.531584    80A      2.531585  
      81A      2.605038    82A      2.605038    83A      2.607616  
      84A      2.629510    85A      2.629510    86A      2.762101  
      87A      2.801893    88A      2.801893    89A      2.880835  
      90A      2.927858    91A      2.927859    92A      3.026441  
      93A      3.032402    94A      3.063208    95A      3.063209  
      96A      3.101080    97A      3.101081    98A      3.197765  
      99A      3.197765   100A      3.232174   101A      3.240767  
     102A      3.483203   103A      3.539296   104A      3.539297  
     105A      3.579547   106A      3.579549   107A      3.583451  
     108A      3.583451   109A      3.611541   110A      3.732984  
     111A      3.752101   112A      3.752101   113A      3.959336  
     114A      3.959336   115A      4.007568   116A      4.190963  
     117A      4.357911   118A      4.357911   119A      4.401421  
     120A      4.401421   121A      4.492090   122A      4.503677  
     123A      4.503678   124A      4.514096   125A      4.514096  
     126A      4.566894   127A      4.566894   128A      4.585409  
     129A      4.619950   130A      4.619950   131A      4.652191  
     132A      4.655523   133A      4.655523   134A      5.063051  
     135A      5.268620   136A      5.424158   137A      5.424158  
     138A      5.462602   139A      6.160350   140A      6.160351  
     141A      6.260664   142A      6.260665   143A      6.287625  
     144A      6.327907   145A      6.362360   146A      6.362427  
     147A      6.368605   148A      6.368606   149A      6.673296  
     150A      6.673296   151A      6.789585   152A      6.841412  
     153A      6.841412   154A      6.910098   155A      6.941551  
     156A      6.941551   157A      6.970979   158A      6.970979  
     159A      7.048891   160A      7.119601   161A      7.119601  
     162A      7.265205   163A      7.347913   164A      7.347913  
     165A      7.505424   166A      7.571666   167A      7.577682  
     168A      7.577682   169A      7.636936   170A      7.636936  
     171A      7.668528   172A      7.694776   173A      7.694776  
     174A      7.865038   175A      7.980230   176A      7.993283  
     177A      7.993284   178A      8.132574   179A      8.132574  
     180A      8.292541   181A      8.292542   182A      8.295663  
     183A      8.338355   184A      8.377669   185A      8.377669  
     186A      8.451348   187A      8.516854   188A      8.658265  
     189A      8.689722   190A      8.689722   191A      8.810960  
     192A      8.810960   193A      8.836353   194A      8.877319  
     195A      8.892684   196A      8.892684   197A      8.980620  
     198A      8.980620   199A      9.015292   200A      9.053622  
     201A      9.053623   202A      9.385288   203A      9.385288  
     204A      9.449693   205A      9.548049   206A      9.548049  
     207A      9.736521   208A      9.831449   209A      9.831449  
     210A     10.099398   211A     10.128678   212A     10.128678  
     213A     10.312967   214A     10.537183   215A     10.537183  
     216A     10.585945   217A     10.836109   218A     10.959801  
     219A     10.959801   220A     11.476775   221A     11.608506  
     222A     11.698495   223A     11.698496   224A     12.092710  
     225A     12.127551   226A     12.127551   227A     12.306216  
     228A     12.306217   229A     12.470709   230A     12.892508  
     231A     14.836148   232A     14.836148   233A     15.715406  
     234A     28.696891   235A     28.696891   236A     28.910905  
     237A     29.203249   238A     35.257140   239A     35.257140  
     240A     35.408976   241A     35.408976   242A     36.002325  
     243A     39.413270   244A     64.520975   245A    141.443651  
     246A    165.005054   247A    165.005054   248A    165.324351  
     249A    200.522997   250A    325.087893   251A    874.342424  
     252A   3948.278562  

    Final Occupation by Irrep:
              A 
    DOCC [     5 ]
    NA   [     5 ]
    NB   [     5 ]

  @DF-RHF Final Energy:   -56.22442734307162

   => Energetics <=

    Nuclear Repulsion Energy =             11.9457461853529985
    One-Electron Energy =                 -99.6140927575146833
    Two-Electron Energy =                  31.4439192290900635
    Total Energy =                        -56.2244273430716177

Computation Completed


Properties will be evaluated at   0.000000,   0.000000,   0.000000 [a0]

Properties computed using the SCF density matrix


 Multipole Moments:

 ------------------------------------------------------------------------------------
     Multipole            Electronic (a.u.)      Nuclear  (a.u.)        Total (a.u.)
 ------------------------------------------------------------------------------------

 L = 1.  Multiply by 2.5417464519 to convert [e a0] to [Debye]
 Dipole X            :         -0.0006173            0.0006173           -0.0000000
 Dipole Y            :         62.9419118          -63.5486109           -0.6066991
 Dipole Z            :          0.0000000            0.0000000            0.0000000
 Magnitude           :                                                    0.6066991

 ------------------------------------------------------------------------------------

*** tstop() called on cmpsrv002 at Thu Sep 19 14:23:30 2024
Module time:
	user time   =      10.90 seconds =       0.18 minutes
	system time =       0.79 seconds =       0.01 minutes
	total time  =        154 seconds =       2.57 minutes
Total time:
	user time   =      37.30 seconds =       0.62 minutes
	system time =       3.61 seconds =       0.06 minutes
	total time  =        441 seconds =       7.35 minutes

         ---------------------------------------------------------
                        SAPT(DFT): delta HF Segment                

                   by Daniel G. A. Smith and Rob Parrish           
         ---------------------------------------------------------


  ==> Preparing SAPT Data Cache <== 

  ==> DiskDFJK: Density-Fitted J/K Matrices <==

    J tasked:                  Yes
    K tasked:                  Yes
    wK tasked:                  No
    OpenMP threads:              4
    Integrals threads:           4
    Memory [MiB]:             5722
    Algorithm:                Core
    Integral Cache:           SAVE
    Schwarz Cutoff:          1E-12
    Fitting Condition:       1E-10

   => Auxiliary Basis Set <=

  Basis Set: (THIS_BASIS AUX)
    Blend: DEF2-UNIVERSAL-JKFIT
    Number of shells: 109
    Number of basis functions: 415
    Number of Cartesian functions: 544
    Spherical Harmonics?: true
    Max angular momentum: 5


  ==> E10 Electostatics <== 

    Elst10,r                         -8.93492985 [mEh]

  ==> E10 Exchange <== 

    Exch10(S^2)                       4.94170709 [mEh]
    Exch10                            4.96705243 [mEh]

  ==> E20 Induction <== 

   => Uncoupled Induction <= 

    Ind20,u (A<-B)                   -0.84440938 [mEh]
    Ind20,u (A->B)                   -1.40041658 [mEh]
    Ind20,u                          -2.24482596 [mEh]
    Exch-Ind20,u (A<-B)               0.20446439 [mEh]
    Exch-Ind20,u (A->B)               0.75139893 [mEh]
    Exch-Ind20,u                      0.95586331 [mEh]
    Exch-Ind20,u (A<-B) (S^inf)       0.20618162 [mEh]
    Exch-Ind20,u (A->B) (S^inf)       0.76164194 [mEh]
    Exch-Ind20,u (S^inf)              0.96782356 [mEh]

   => Coupled Induction <= 

   ---------------------------------------------------
              SAPT Coupled Induction Solver           
   ---------------------------------------------------
    Maxiter             =          20
    Convergence         =   1.000E-06
   ---------------------------------------------------
     Iter       (A<-B)           (B->A)      Time [s]
   ---------------------------------------------------
    Guess    2.395544e-01     1.530795e-01          0
        1    9.218424e-02     5.415843e-02          0
        2    4.080841e-02     1.537857e-02          0
        3    1.260920e-02     4.221182e-03          0
        4    1.125381e-03     8.075568e-04          0
        5    3.344022e-04     1.347550e-04          0
        6    5.122704e-05     2.143903e-05          1
        7    4.869208e-06     5.532017e-06          1
        8    6.568712e-07*    1.032303e-06          1
        9    6.568712e-07*    7.838086e-08*         1
   ---------------------------------------------------

    Ind20,r (A<-B)                   -0.93100204 [mEh]
    Ind20,r (A->B)                   -1.80180229 [mEh]
    Ind20,r                          -2.73280433 [mEh]
    Exch-Ind20,r (A<-B)               0.21185683 [mEh]
    Exch-Ind20,r (A->B)               0.99280901 [mEh]
    Exch-Ind20,r                      1.20466584 [mEh]
    Exch-Ind20,r (A<-B) (S^inf)       0.21343732 [mEh]
    Exch-Ind20,r (A->B) (S^inf)       1.00682371 [mEh]
    Exch-Ind20,r (S^inf)              1.22026103 [mEh]

   Partial SAPT(HF) Results, to compute Delta HF (dHF)
  ---------------------------------------------------------------------------------------------------------
    Electrostatics                   -8.93492985 [mEh]     -5.60675313 [kcal/mol]    -23.45865510 [kJ/mol]
      Elst10,r                       -8.93492985 [mEh]     -5.60675313 [kcal/mol]    -23.45865510 [kJ/mol]

    Exchange                          4.96705243 [mEh]      3.11687246 [kcal/mol]     13.04099437 [kJ/mol]
      Exch10                          4.96705243 [mEh]      3.11687246 [kcal/mol]     13.04099437 [kJ/mol]
      Exch10(S^2)                     4.94170709 [mEh]      3.10096802 [kcal/mol]     12.97445019 [kJ/mol]

    Induction (no dHF)               -1.52813849 [mEh]     -0.95892138 [kcal/mol]     -4.01212706 [kJ/mol]
      Ind20,r                        -2.73280433 [mEh]     -1.71486061 [kcal/mol]     -7.17497678 [kJ/mol]
      Exch-Ind20,r                    1.20466584 [mEh]      0.75593922 [kcal/mol]      3.16284972 [kJ/mol]
      Induction (A<-B) (no dHF)      -0.71914521 [mEh]     -0.45127043 [kcal/mol]     -1.88811549 [kJ/mol]
      Induction (A->B) (no dHF)      -0.80899328 [mEh]     -0.50765095 [kcal/mol]     -2.12401157 [kJ/mol]

    Subtotal SAPT(HF)                -5.49601591 [mEh]     -3.44880205 [kcal/mol]    -14.42978779 [kJ/mol]
    Total HF                         -6.86524978 [mEh]     -4.30800928 [kcal/mol]    -18.02471081 [kJ/mol]
    Delta HF                         -1.36923387 [mEh]     -0.85920722 [kcal/mol]     -3.59492302 [kJ/mol]
  ---------------------------------------------------------------------------------------------------------
   Partial SAPT(HF) Results, alternate SAPT0-like display
  ---------------------------------------------------------------------------------------------------------
    Induction                        -2.89737236 [mEh]     -1.81812860 [kcal/mol]     -7.60705008 [kJ/mol]
      Ind20,r                        -2.73280433 [mEh]     -1.71486061 [kcal/mol]     -7.17497678 [kJ/mol]
      Exch-Ind20,r                    1.20466584 [mEh]      0.75593922 [kcal/mol]      3.16284972 [kJ/mol]
      delta HF,r (2)                 -1.36923387 [mEh]     -0.85920722 [kcal/mol]     -3.59492302 [kJ/mol]
      Induction (A<-B)               -1.36350957 [mEh]     -0.85561517 [kcal/mol]     -3.57989388 [kJ/mol]
      Induction (A->B)               -1.53386279 [mEh]     -0.96251343 [kcal/mol]     -4.02715620 [kJ/mol]
  ---------------------------------------------------------------------------------------------------------
   => Libint2 <=

    Primary   basis highest AM E, G, H:  6, 6, 3
    Auxiliary basis highest AM E, G, H:  7, 7, 4
    Onebody   basis highest AM E, G, H:  -, -, -
    Solid Harmonics ordering:            Gaussian

*** tstart() called on cmpsrv002
*** at Thu Sep 19 14:23:32 2024

   => Loading Basis Set <=

    Name: THIS_BASIS
    Role: ORBITAL
    Keyword: BASIS
    atoms 1, 4-6 entry H          line    15 file /home/vance/anaconda3/envs/p4env/share/psi4/basis/def2-qzvp.gbs 
    atoms 2      entry BR         line  2253 file /home/vance/anaconda3/envs/p4env/share/psi4/basis/def2-qzvp.gbs 
    atoms 3      entry N          line   242 file /home/vance/anaconda3/envs/p4env/share/psi4/basis/def2-qzvp.gbs 


         ---------------------------------------------------------
                          SAPT(DFT): DFT Monomer A                 
         ---------------------------------------------------------
                                   SCF
               by Justin Turney, Rob Parrish, Andy Simmonett
                          and Daniel G. A. Smith
                              RKS Reference
                        4 Threads,   7629 MiB Core
         ---------------------------------------------------------

  ==> Geometry <==

    Molecular point group: c1
    Full point group: C1

    Geometry (in Angstrom), charge = 0, multiplicity = 1:

       Center              X                  Y                   Z               Mass       
    ------------   -----------------  -----------------  -----------------  -----------------
         H            0.000022663468    -0.787936668130     0.000000000000     1.007825032230
         BR          -0.000007336532     0.726283331870     0.000000000000    78.918337600000
      Gh(N)           0.000032663468    -3.257106668130     0.000000000000    14.003074004430
      Gh(H)          -0.474347336532    -3.609576668130     0.821650000000     1.007825032230
      Gh(H)          -0.474347336532    -3.609576668130    -0.821650000000     1.007825032230
      Gh(H)           0.948792663468    -3.609576668130     0.000000000000     1.007825032230

  Running in c1 symmetry.

  Rotational constants: A =      6.19409  B =      0.07280  C =      0.07280 [cm^-1]
  Rotational constants: A = 185694.14443  B =   2182.46936  C =   2182.46935 [MHz]
  Nuclear repulsion =   12.231513498576831

  Charge       = 0
  Multiplicity = 1
  Electrons    = 36
  Nalpha       = 18
  Nbeta        = 18

  ==> Algorithm <==

  SCF Algorithm Type is DF.
  DIIS enabled.
  MOM disabled.
  Fractional occupation disabled.
  Guess Type is SAD.
  Energy threshold   = 1.00e-08
  Density threshold  = 1.00e-08
  Integral threshold = 1.00e-12

  ==> Primary Basis <==

  Basis Set: THIS_BASIS
    Blend: DEF2-QZVP
    Number of shells: 82
    Number of basis functions: 252
    Number of Cartesian functions: 303
    Spherical Harmonics?: true
    Max angular momentum: 4

  ==> DFT Potential <==

   => LibXC <=

    Version 6.2.2
    S. Lehtola, C. Steigemann, M. J.T. Oliveira, and M. A.L. Marques.,  SoftwareX 7, 15 (2018) (10.1016/j.softx.2017.11.002)

   => Composite Functional: PBE0 <= 

    PBE0 Hyb-GGA Exchange-Correlation Functional

    C. Adamo and V. Barone.,  J. Chem. Phys. 110, 6158 (1999) (10.1063/1.478522)
    M. Ernzerhof and G. E. Scuseria.,  J. Chem. Phys. 110, 5029 (1999) (10.1063/1.478401)

    Deriv               =              1
    GGA                 =           TRUE
    Meta                =          FALSE

    Exchange Hybrid     =           TRUE
    MP2 Hybrid          =          FALSE

   => Exchange Functionals <=

    0.7500   Perdew, Burke & Ernzerhof

   => Exact (HF) Exchange <=

    0.2500               HF 

   => Correlation Functionals <=

    1.0000   Perdew, Burke & Ernzerhof

   => LibXC Density Thresholds  <==

    XC_HYB_GGA_XC_PBEH:  1.00E-15 

   => Asymptotic Correction <=

    X Functional        =    XC_GGA_X_LB
    C Functional        =   XC_LDA_C_VWN
    Bulk Shift          =       0.106591
    GRAC Alpha          =       0.500000
    GRAC Beta           =      40.000000

   => Molecular Quadrature <=

    Radial Scheme          =       TREUTLER
    Pruning Scheme         =           NONE
    Nuclear Scheme         =       TREUTLER

    Blocking Scheme        =         OCTREE
    BS radius alpha        =              1
    Pruning alpha          =              1
    Radial Points          =             75
    Spherical Points       =            302
    Total Points           =         130721
    Total Blocks           =           1042
    Max Points             =            256
    Max Functions          =            237
    Weights Tolerance      =       1.00E-15

   => Loading Basis Set <=

    Name: (THIS_BASIS AUX)
    Role: JKFIT
    Keyword: DF_BASIS_SCF
    atoms 1, 4-6 entry H          line    18 file /home/vance/anaconda3/envs/p4env/share/psi4/basis/def2-universal-jkfit.gbs 
    atoms 2      entry BR         line  3124 file /home/vance/anaconda3/envs/p4env/share/psi4/basis/def2-universal-jkfit.gbs 
    atoms 3      entry N          line   258 file /home/vance/anaconda3/envs/p4env/share/psi4/basis/def2-universal-jkfit.gbs 

  ==> Integral Setup <==

  ==> DiskDFJK: Density-Fitted J/K Matrices <==

    J tasked:                  Yes
    K tasked:                  Yes
    wK tasked:                  No
    OpenMP threads:              4
    Integrals threads:           4
    Memory [MiB]:             5052
    Algorithm:                Core
    Integral Cache:           SAVE
    Schwarz Cutoff:          1E-12
    Fitting Condition:       1E-10

   => Auxiliary Basis Set <=

  Basis Set: (THIS_BASIS AUX)
    Blend: DEF2-UNIVERSAL-JKFIT
    Number of shells: 109
    Number of basis functions: 415
    Number of Cartesian functions: 544
    Spherical Harmonics?: true
    Max angular momentum: 5

  Cached 100.0% of DFT collocation blocks in 0.654 [GiB].

  Minimum eigenvalue in the overlap matrix is 1.4611521102E-04.
  Reciprocal condition number of the overlap matrix is 1.8223133520E-05.
    Using symmetric orthogonalization.

  ==> Pre-Iterations <==

  SCF Guess: Superposition of Atomic Densities via on-the-fly atomic UHF (no occupation information).

   -------------------------
    Irrep   Nso     Nmo    
   -------------------------
     A        252     252 
   -------------------------
    Total     252     252
   -------------------------

  ==> Iterations <==

                           Total Energy        Delta E     RMS |[F,P]|

   @DF-RKS iter SAD: -2572.87175868408667   -2.57287e+03   0.00000e+00 
   @DF-RKS iter   1: -2574.05672751748352   -1.18497e+00   8.57558e-03 ADIIS/DIIS
   @DF-RKS iter   2: -2573.97531390967424    8.14136e-02   8.99690e-03 ADIIS/DIIS
   @DF-RKS iter   3: -2574.50584005665405   -5.30526e-01   2.39745e-04 ADIIS/DIIS
   @DF-RKS iter   4: -2574.50664100237555   -8.00946e-04   2.00959e-04 ADIIS/DIIS
   @DF-RKS iter   5: -2574.50810638064286   -1.46538e-03   1.23198e-05 DIIS
   @DF-RKS iter   6: -2574.50810826451971   -1.88388e-06   2.08791e-06 DIIS
   @DF-RKS iter   7: -2574.50810851840333   -2.53884e-07   8.26691e-08 DIIS
   @DF-RKS iter   8: -2574.50810851128654    7.11680e-09   7.60046e-09 DIIS
  Energy and wave function converged.


  ==> Post-Iterations <==

   Electrons on quadrature grid:
      Ntotal   =   35.9999989606 ; deviation = -1.039e-06 

    Orbital Energies [Eh]
    ---------------------

    Doubly Occupied:                                                      

       1A   -483.380958     2A    -62.767769     3A    -56.542723  
       4A    -56.539113     5A    -56.539113     6A     -8.893404  
       7A     -6.703912     8A     -6.692796     9A     -6.692796  
      10A     -2.789631    11A     -2.786191    12A     -2.786191  
      13A     -2.777098    14A     -2.777098    15A     -0.912002  
      16A     -0.554574    17A     -0.427370    18A     -0.427370  

    Virtual:                                                              

      19A     -0.141684    20A     -0.019833    21A      0.023613  
      22A      0.041995    23A      0.041998    24A      0.064982  
      25A      0.093645    26A      0.093647    27A      0.147188  
      28A      0.147191    29A      0.180285    30A      0.215893  
      31A      0.215893    32A      0.224321    33A      0.233290  
      34A      0.233294    35A      0.325399    36A      0.397303  
      37A      0.440915    38A      0.440918    39A      0.513789  
      40A      0.513792    41A      0.564588    42A      0.601505  
      43A      0.601506    44A      0.726395    45A      0.746240  
      46A      0.812524    47A      0.850387    48A      0.850388  
      49A      0.855234    50A      0.862326    51A      0.868203  
      52A      0.868204    53A      0.891025    54A      0.891027  
      55A      0.930255    56A      0.930259    57A      0.944108  
      58A      0.944108    59A      1.001347    60A      1.017632  
      61A      1.017638    62A      1.105827    63A      1.105829  
      64A      1.136548    65A      1.222677    66A      1.260777  
      67A      1.260784    68A      1.313968    69A      1.313969  
      70A      1.325194    71A      1.325194    72A      1.331418  
      73A      1.386294    74A      1.386296    75A      1.412756  
      76A      1.594833    77A      1.839011    78A      1.839027  
      79A      1.876242    80A      1.967496    81A      1.967497  
      82A      2.015028    83A      2.103911    84A      2.103914  
      85A      2.249355    86A      2.341732    87A      2.341733  
      88A      2.377721    89A      2.394267    90A      2.394267  
      91A      2.425783    92A      2.434727    93A      2.434729  
      94A      2.514635    95A      2.565085    96A      2.565089  
      97A      2.577310    98A      2.577310    99A      2.587889  
     100A      2.593785   101A      2.593785   102A      2.603307  
     103A      2.603307   104A      2.631938   105A      2.631939  
     106A      2.695211   107A      2.695220   108A      2.712623  
     109A      2.712625   110A      2.723196   111A      2.773353  
     112A      2.773355   113A      2.793201   114A      2.793207  
     115A      2.853638   116A      2.855035   117A      2.855040  
     118A      3.013779   119A      3.088042   120A      3.088044  
     121A      3.088073   122A      3.187544   123A      3.332586  
     124A      3.332590   125A      3.335553   126A      3.376572  
     127A      3.376572   128A      3.445003   129A      3.487597  
     130A      3.619796   131A      3.619801   132A      3.756399  
     133A      3.797750   134A      3.797752   135A      3.835523  
     136A      3.835526   137A      4.083075   138A      4.155419  
     139A      4.278201   140A      4.311364   141A      4.437623  
     142A      4.437625   143A      4.832541   144A      4.832542  
     145A      4.891308   146A      4.891308   147A      4.907297  
     148A      4.957457   149A      4.957457   150A      5.292750  
     151A      5.650613   152A      5.650788   153A      5.902650  
     154A      5.902652   155A      5.919030   156A      5.919077  
     157A      6.139373   158A      6.330725   159A      6.330725  
     160A      6.364250   161A      6.364252   162A      6.459096  
     163A      6.490453   164A      6.498438   165A      6.498439  
     166A      6.658065   167A      6.658065   168A      6.808869  
     169A      7.030044   170A      7.030046   171A      7.273940  
     172A      7.273941   173A      7.304057   174A      7.414606  
     175A      7.550650   176A      7.563577   177A      7.563577  
     178A      7.673730   179A      7.673735   180A      7.766871  
     181A      7.767172   182A      7.810367   183A      7.873494  
     184A      8.038996   185A      8.041327   186A      8.041328  
     187A      8.145139   188A      8.258232   189A      8.276943  
     190A      8.276944   191A      8.350476   192A      8.350476  
     193A      8.474991   194A      8.474994   195A      8.591613  
     196A      8.646885   197A      8.646890   198A      8.658696  
     199A      8.691176   200A      8.852852   201A      8.852852  
     202A      8.881228   203A      8.881231   204A      8.890851  
     205A      8.963770   206A      9.024662   207A      9.212244  
     208A      9.212246   209A      9.216219   210A      9.382522  
     211A      9.499374   212A      9.588649   213A      9.588652  
     214A      9.844766   215A      9.964213   216A      9.964214  
     217A     10.074387   218A     10.074387   219A     10.148091  
     220A     10.565526   221A     10.565528   222A     10.889065  
     223A     10.889065   224A     11.088829   225A     11.187155  
     226A     11.643870   227A     11.643871   228A     12.243151  
     229A     12.243151   230A     12.653612   231A     13.497581  
     232A     13.497581   233A     13.581970   234A     13.741084  
     235A     13.741084   236A     13.802267   237A     14.016536  
     238A     14.167213   239A     14.167214   240A     14.450597  
     241A     14.453981   242A     14.453982   243A     15.900237  
     244A     18.075286   245A     18.075287   246A     25.399440  
     247A     28.961561   248A     70.159213   249A     94.687421  
     250A    318.508856   251A    321.618649   252A   1819.044410  

    Final Occupation by Irrep:
              A 
    DOCC [    18 ]
    NA   [    18 ]
    NB   [    18 ]

  @DF-RKS Final Energy: -2574.50810851128654

   => Energetics <=

    Nuclear Repulsion Energy =             12.2315134985768310
    One-Electron Energy =               -3607.2518389128244962
    Two-Electron Energy =                1089.3938269008306179
    DFT Exchange-Correlation Energy =     -68.8816099978699015
    Empirical Dispersion Energy =           0.0000000000000000
    VV10 Nonlocal Energy =                  0.0000000000000000
    Total Energy =                      -2574.5081085112865367

Computation Completed


Properties will be evaluated at   0.000000,   0.000000,   0.000000 [a0]

Properties computed using the SCF density matrix


 Multipole Moments:

 ------------------------------------------------------------------------------------
     Multipole            Electronic (a.u.)      Nuclear  (a.u.)        Total (a.u.)
 ------------------------------------------------------------------------------------

 L = 1.  Multiply by 2.5417464519 to convert [e a0] to [Debye]
 Dipole X            :          0.0004510           -0.0004424            0.0000085
 Dipole Y            :        -46.9295126           46.5476960           -0.3818165
 Dipole Z            :         -0.0000000            0.0000000           -0.0000000
 Magnitude           :                                                    0.3818165

 ------------------------------------------------------------------------------------

*** tstop() called on cmpsrv002 at Thu Sep 19 14:25:53 2024
Module time:
	user time   =      19.02 seconds =       0.32 minutes
	system time =       1.61 seconds =       0.03 minutes
	total time  =        141 seconds =       2.35 minutes
Total time:
	user time   =      65.99 seconds =       1.10 minutes
	system time =       5.37 seconds =       0.09 minutes
	total time  =        584 seconds =       9.73 minutes
   => Libint2 <=

    Primary   basis highest AM E, G, H:  6, 6, 3
    Auxiliary basis highest AM E, G, H:  7, 7, 4
    Onebody   basis highest AM E, G, H:  -, -, -
    Solid Harmonics ordering:            Gaussian

*** tstart() called on cmpsrv002
*** at Thu Sep 19 14:25:53 2024

   => Loading Basis Set <=

    Name: THIS_BASIS
    Role: ORBITAL
    Keyword: BASIS
    atoms 1, 4-6 entry H          line    15 file /home/vance/anaconda3/envs/p4env/share/psi4/basis/def2-qzvp.gbs 
    atoms 2      entry BR         line  2253 file /home/vance/anaconda3/envs/p4env/share/psi4/basis/def2-qzvp.gbs 
    atoms 3      entry N          line   242 file /home/vance/anaconda3/envs/p4env/share/psi4/basis/def2-qzvp.gbs 


         ---------------------------------------------------------
                          SAPT(DFT): DFT Monomer B                 
         ---------------------------------------------------------
                                   SCF
               by Justin Turney, Rob Parrish, Andy Simmonett
                          and Daniel G. A. Smith
                              RKS Reference
                        4 Threads,   7629 MiB Core
         ---------------------------------------------------------

  ==> Geometry <==

    Molecular point group: c1
    Full point group: C1

    Geometry (in Angstrom), charge = 0, multiplicity = 1:

       Center              X                  Y                   Z               Mass       
    ------------   -----------------  -----------------  -----------------  -----------------
      Gh(H)           0.000022663468    -0.787936668130     0.000000000000     1.007825032230
      Gh(BR)         -0.000007336532     0.726283331870     0.000000000000    78.918337600000
         N            0.000032663468    -3.257106668130     0.000000000000    14.003074004430
         H           -0.474347336532    -3.609576668130     0.821650000000     1.007825032230
         H           -0.474347336532    -3.609576668130    -0.821650000000     1.007825032230
         H            0.948792663468    -3.609576668130     0.000000000000     1.007825032230

  Running in c1 symmetry.

  Rotational constants: A =      6.19409  B =      0.07280  C =      0.07280 [cm^-1]
  Rotational constants: A = 185694.14443  B =   2182.46936  C =   2182.46935 [MHz]
  Nuclear repulsion =   11.945746185352998

  Charge       = 0
  Multiplicity = 1
  Electrons    = 10
  Nalpha       = 5
  Nbeta        = 5

  ==> Algorithm <==

  SCF Algorithm Type is DF.
  DIIS enabled.
  MOM disabled.
  Fractional occupation disabled.
  Guess Type is SAD.
  Energy threshold   = 1.00e-08
  Density threshold  = 1.00e-08
  Integral threshold = 1.00e-12

  ==> Primary Basis <==

  Basis Set: THIS_BASIS
    Blend: DEF2-QZVP
    Number of shells: 82
    Number of basis functions: 252
    Number of Cartesian functions: 303
    Spherical Harmonics?: true
    Max angular momentum: 4

  ==> DFT Potential <==

   => LibXC <=

    Version 6.2.2
    S. Lehtola, C. Steigemann, M. J.T. Oliveira, and M. A.L. Marques.,  SoftwareX 7, 15 (2018) (10.1016/j.softx.2017.11.002)

   => Composite Functional: PBE0 <= 

    PBE0 Hyb-GGA Exchange-Correlation Functional

    C. Adamo and V. Barone.,  J. Chem. Phys. 110, 6158 (1999) (10.1063/1.478522)
    M. Ernzerhof and G. E. Scuseria.,  J. Chem. Phys. 110, 5029 (1999) (10.1063/1.478401)

    Deriv               =              1
    GGA                 =           TRUE
    Meta                =          FALSE

    Exchange Hybrid     =           TRUE
    MP2 Hybrid          =          FALSE

   => Exchange Functionals <=

    0.7500   Perdew, Burke & Ernzerhof

   => Exact (HF) Exchange <=

    0.2500               HF 

   => Correlation Functionals <=

    1.0000   Perdew, Burke & Ernzerhof

   => LibXC Density Thresholds  <==

    XC_HYB_GGA_XC_PBEH:  1.00E-15 

   => Asymptotic Correction <=

    X Functional        =    XC_GGA_X_LB
    C Functional        =   XC_LDA_C_VWN
    Bulk Shift          =       0.113162
    GRAC Alpha          =       0.500000
    GRAC Beta           =      40.000000

   => Molecular Quadrature <=

    Radial Scheme          =       TREUTLER
    Pruning Scheme         =           NONE
    Nuclear Scheme         =       TREUTLER

    Blocking Scheme        =         OCTREE
    BS radius alpha        =              1
    Pruning alpha          =              1
    Radial Points          =             75
    Spherical Points       =            302
    Total Points           =         130721
    Total Blocks           =           1042
    Max Points             =            256
    Max Functions          =            237
    Weights Tolerance      =       1.00E-15

   => Loading Basis Set <=

    Name: (THIS_BASIS AUX)
    Role: JKFIT
    Keyword: DF_BASIS_SCF
    atoms 1, 4-6 entry H          line    18 file /home/vance/anaconda3/envs/p4env/share/psi4/basis/def2-universal-jkfit.gbs 
    atoms 2      entry BR         line  3124 file /home/vance/anaconda3/envs/p4env/share/psi4/basis/def2-universal-jkfit.gbs 
    atoms 3      entry N          line   258 file /home/vance/anaconda3/envs/p4env/share/psi4/basis/def2-universal-jkfit.gbs 

  ==> Integral Setup <==

  ==> DiskDFJK: Density-Fitted J/K Matrices <==

    J tasked:                  Yes
    K tasked:                  Yes
    wK tasked:                  No
    OpenMP threads:              4
    Integrals threads:           4
    Memory [MiB]:             5052
    Algorithm:                Core
    Integral Cache:           SAVE
    Schwarz Cutoff:          1E-12
    Fitting Condition:       1E-10

   => Auxiliary Basis Set <=

  Basis Set: (THIS_BASIS AUX)
    Blend: DEF2-UNIVERSAL-JKFIT
    Number of shells: 109
    Number of basis functions: 415
    Number of Cartesian functions: 544
    Spherical Harmonics?: true
    Max angular momentum: 5

  Cached 100.0% of DFT collocation blocks in 0.654 [GiB].

  Minimum eigenvalue in the overlap matrix is 1.4611521102E-04.
  Reciprocal condition number of the overlap matrix is 1.8223133520E-05.
    Using symmetric orthogonalization.

  ==> Pre-Iterations <==

  SCF Guess: Superposition of Atomic Densities via on-the-fly atomic UHF (no occupation information).

   -------------------------
    Irrep   Nso     Nmo    
   -------------------------
     A        252     252 
   -------------------------
    Total     252     252
   -------------------------

  ==> Iterations <==

                           Total Energy        Delta E     RMS |[F,P]|

   @DF-RKS iter SAD:   -56.06908221907252   -5.60691e+01   0.00000e+00 
   @DF-RKS iter   1:   -56.28001130082892   -2.10929e-01   3.08542e-03 ADIIS/DIIS
   @DF-RKS iter   2:   -56.02437569691104    2.55636e-01   4.03192e-03 ADIIS/DIIS
   @DF-RKS iter   3:   -56.51871110369171   -4.94335e-01   2.12266e-04 ADIIS/DIIS
   @DF-RKS iter   4:   -56.52013702431064   -1.42592e-03   1.84622e-05 DIIS
   @DF-RKS iter   5:   -56.52014396037418   -6.93606e-06   4.90467e-06 DIIS
   @DF-RKS iter   6:   -56.52014402194498   -6.15708e-08   1.90422e-07 DIIS
   @DF-RKS iter   7:   -56.52014398698605    3.49589e-08   2.48590e-08 DIIS
   @DF-RKS iter   8:   -56.52014397838401    8.60204e-09   2.75059e-09 DIIS
  Energy and wave function converged.


  ==> Post-Iterations <==

   Electrons on quadrature grid:
      Ntotal   =    9.9999992581 ; deviation = -7.419e-07 

    Orbital Energies [Eh]
    ---------------------

    Doubly Occupied:                                                      

       1A    -14.471437     2A     -0.987023     3A     -0.590791  
       4A     -0.590791     5A     -0.391424  

    Virtual:                                                              

       6A     -0.084493     7A     -0.015434     8A     -0.015433  
       9A      0.008539    10A      0.084416    11A      0.084418  
      12A      0.093699    13A      0.131919    14A      0.131920  
      15A      0.137142    16A      0.227473    17A      0.270147  
      18A      0.272119    19A      0.272121    20A      0.307884  
      21A      0.307885    22A      0.335326    23A      0.461354  
      24A      0.550331    25A      0.550331    26A      0.588364  
      27A      0.588364    28A      0.610406    29A      0.614605  
      30A      0.654364    31A      0.654365    32A      0.664829  
      33A      0.696538    34A      0.696541    35A      0.725047  
      36A      0.737926    37A      0.737929    38A      0.819903  
      39A      0.819906    40A      0.839278    41A      0.899907  
      42A      0.899908    43A      0.920637    44A      1.012002  
      45A      1.012003    46A      1.028753    47A      1.075039  
      48A      1.096869    49A      1.096870    50A      1.111846  
      51A      1.346484    52A      1.346485    53A      1.357026  
      54A      1.357080    55A      1.360728    56A      1.502545  
      57A      1.502545    58A      1.505949    59A      1.617717  
      60A      1.617719    61A      1.787580    62A      1.787580  
      63A      1.818238    64A      1.896734    65A      1.960724  
      66A      1.960730    67A      1.968252    68A      2.013264  
      69A      2.040768    70A      2.149725    71A      2.149728  
      72A      2.166317    73A      2.166318    74A      2.221999  
      75A      2.222006    76A      2.282120    77A      2.282132  
      78A      2.295777    79A      2.295780    80A      2.312284  
      81A      2.312285    82A      2.316183    83A      2.370021  
      84A      2.378686    85A      2.378686    86A      2.432529  
      87A      2.475875    88A      2.475878    89A      2.525180  
      90A      2.659705    91A      2.705925    92A      2.705926  
      93A      2.738305    94A      2.738308    95A      2.744929  
      96A      2.830662    97A      2.830669    98A      2.893056  
      99A      2.935220   100A      2.935220   101A      3.049813  
     102A      3.107113   103A      3.130866   104A      3.130867  
     105A      3.212373   106A      3.480598   107A      3.488113  
     108A      3.488115   109A      3.497389   110A      3.497390  
     111A      3.537050   112A      3.537052   113A      3.654402  
     114A      3.654402   115A      3.706849   116A      3.790517  
     117A      3.935766   118A      3.935774   119A      4.143697  
     120A      4.168136   121A      4.168136   122A      4.291377  
     123A      4.291377   124A      4.389728   125A      4.417795  
     126A      4.417799   127A      4.424386   128A      4.424388  
     129A      4.478902   130A      4.478902   131A      4.538975  
     132A      4.539679   133A      4.539679   134A      4.587954  
     135A      4.925719   136A      4.925721   137A      5.167992  
     138A      5.319153   139A      5.716567   140A      5.716578  
     141A      5.828866   142A      5.828867   143A      5.834760  
     144A      5.892491   145A      5.899288   146A      5.899292  
     147A      6.195140   148A      6.195173   149A      6.286617  
     150A      6.424310   151A      6.455188   152A      6.455196  
     153A      6.520702   154A      6.520726   155A      6.620256  
     156A      6.620266   157A      6.735193   158A      6.735193  
     159A      6.821689   160A      6.837450   161A      6.837451  
     162A      6.874979   163A      6.874980   164A      6.899341  
     165A      7.058784   166A      7.127238   167A      7.127241  
     168A      7.161791   169A      7.211288   170A      7.211300  
     171A      7.358432   172A      7.427514   173A      7.477105  
     174A      7.477105   175A      7.526242   176A      7.560935  
     177A      7.560949   178A      7.689802   179A      7.689824  
     180A      7.814309   181A      7.814320   182A      7.819068  
     183A      7.858015   184A      7.916418   185A      7.916420  
     186A      8.005457   187A      8.050402   188A      8.157601  
     189A      8.167788   190A      8.167792   191A      8.332478  
     192A      8.381339   193A      8.381352   194A      8.457218  
     195A      8.512293   196A      8.512296   197A      8.647010  
     198A      8.647134   199A      8.701947   200A      8.807164  
     201A      8.807164   202A      8.895381   203A      9.003413  
     204A      9.003420   205A      9.210225   206A      9.210226  
     207A      9.268429   208A      9.268429   209A      9.440883  
     210A      9.579278   211A      9.579280   212A      9.613505  
     213A      9.773110   214A      9.963399   215A      9.963403  
     216A     10.002717   217A     10.693070   218A     10.871062  
     219A     10.871062   220A     11.016452   221A     11.098205  
     222A     11.098207   223A     11.373063   224A     11.514360  
     225A     11.553412   226A     11.553414   227A     11.725827  
     228A     11.725833   229A     11.894720   230A     12.798466  
     231A     14.234415   232A     14.234421   233A     15.076796  
     234A     28.608394   235A     28.608394   236A     28.822063  
     237A     29.113394   238A     35.168779   239A     35.168780  
     240A     35.318897   241A     35.318897   242A     35.912098  
     243A     38.243368   244A     64.431670   245A    141.354519  
     246A    164.915910   247A    164.915910   248A    165.235997  
     249A    197.720240   250A    324.997134   251A    874.248842  
     252A   3948.140973  

    Final Occupation by Irrep:
              A 
    DOCC [     5 ]
    NA   [     5 ]
    NB   [     5 ]

  @DF-RKS Final Energy:   -56.52014397838401

   => Energetics <=

    Nuclear Repulsion Energy =             11.9457461853529985
    One-Electron Energy =                 -99.6879296964328603
    Two-Electron Energy =                  37.2651832772918397
    DFT Exchange-Correlation Energy =      -6.0431437445959872
    Empirical Dispersion Energy =           0.0000000000000000
    VV10 Nonlocal Energy =                  0.0000000000000000
    Total Energy =                        -56.5201439783840058

Computation Completed


Properties will be evaluated at   0.000000,   0.000000,   0.000000 [a0]

Properties computed using the SCF density matrix


 Multipole Moments:

 ------------------------------------------------------------------------------------
     Multipole            Electronic (a.u.)      Nuclear  (a.u.)        Total (a.u.)
 ------------------------------------------------------------------------------------

 L = 1.  Multiply by 2.5417464519 to convert [e a0] to [Debye]
 Dipole X            :         -0.0006147            0.0006173            0.0000026
 Dipole Y            :         62.9703565          -63.5486109           -0.5782545
 Dipole Z            :          0.0000000            0.0000000            0.0000000
 Magnitude           :                                                    0.5782545

 ------------------------------------------------------------------------------------

*** tstop() called on cmpsrv002 at Thu Sep 19 14:27:28 2024
Module time:
	user time   =      17.83 seconds =       0.30 minutes
	system time =       0.77 seconds =       0.01 minutes
	total time  =         95 seconds =       1.58 minutes
Total time:
	user time   =      83.82 seconds =       1.40 minutes
	system time =       6.14 seconds =       0.10 minutes
	total time  =        679 seconds =      11.32 minutes

         ---------------------------------------------------------
               SAPT(DFT): Intermolecular Interaction Segment       

                   by Daniel G. A. Smith and Rob Parrish           
         ---------------------------------------------------------

  ==> Algorithm <==

   SAPT DFT Functional             PBE0
   Monomer A GRAC Shift        0.106591
   Monomer B GRAC Shift        0.113162
   Delta HF                        True
   JK Algorithm                      DF

  ==> Preparing SAPT Data Cache <== 

  ==> DiskDFJK: Density-Fitted J/K Matrices <==

    J tasked:                  Yes
    K tasked:                  Yes
    wK tasked:                  No
    OpenMP threads:              4
    Integrals threads:           4
    Memory [MiB]:             5052
    Algorithm:                Core
    Integral Cache:           SAVE
    Schwarz Cutoff:          1E-12
    Fitting Condition:       1E-10

   => Auxiliary Basis Set <=

  Basis Set: (THIS_BASIS AUX)
    Blend: DEF2-UNIVERSAL-JKFIT
    Number of shells: 109
    Number of basis functions: 415
    Number of Cartesian functions: 544
    Spherical Harmonics?: true
    Max angular momentum: 5


  ==> E10 Electostatics <== 

    Elst10,r                         -8.50936962 [mEh]

  ==> E10 Exchange <== 

    Exch10(S^2)                       5.23690386 [mEh]
    Exch10                            5.26533592 [mEh]

  ==> E20 Induction <== 

   => Uncoupled Induction <= 

    Ind20,u (A<-B)                   -1.14759979 [mEh]
    Ind20,u (A->B)                   -1.93369426 [mEh]
    Ind20,u                          -3.08129405 [mEh]
    Exch-Ind20,u (A<-B)               0.21511142 [mEh]
    Exch-Ind20,u (A->B)               1.09264201 [mEh]
    Exch-Ind20,u                      1.30775343 [mEh]
    Exch-Ind20,u (A<-B) (S^inf)       0.21686906 [mEh]
    Exch-Ind20,u (A->B) (S^inf)       1.10815270 [mEh]
    Exch-Ind20,u (S^inf)              1.32502175 [mEh]

   => Coupled Induction <= 

   ---------------------------------------------------
              SAPT Coupled Induction Solver           
   ---------------------------------------------------
    Maxiter             =          20
    Convergence         =   1.000E-06
   ---------------------------------------------------
     Iter       (A<-B)           (B->A)      Time [s]
   ---------------------------------------------------
    Guess    5.207352e-01     1.264809e-01          1
        1    8.749243e-02     4.926212e-02          2
        2    2.858933e-02     1.676717e-02          3
        3    3.247603e-03     1.349353e-03          4
        4    8.952748e-04     1.226891e-04          7
        5    6.129151e-05     5.166748e-06         11
        6    8.382798e-06     4.498377e-07*        17
        7    4.355278e-07*    4.498377e-07*        19
   ---------------------------------------------------

    Ind20,r (A<-B)                   -0.89701854 [mEh]
    Ind20,r (A->B)                   -2.05463534 [mEh]
    Ind20,r                          -2.95165389 [mEh]
    Exch-Ind20,r (A<-B)               0.24175585 [mEh]
    Exch-Ind20,r (A->B)               1.20949109 [mEh]
    Exch-Ind20,r                      1.45124694 [mEh]
    Exch-Ind20,r (A<-B) (S^inf)       0.24381846 [mEh]
    Exch-Ind20,r (A->B) (S^inf)       1.22686944 [mEh]
    Exch-Ind20,r (S^inf)              1.47068790 [mEh]
   => Loading Basis Set <=

    Name: (THIS_BASIS AUX)
    Role: RIFIT
    Keyword: DF_BASIS_MP2
    atoms 1, 4-6 entry H          line    23 file /home/vance/anaconda3/envs/p4env/share/psi4/basis/def2-qzvp-ri.gbs 
    atoms 2      entry BR         line  2543 file /home/vance/anaconda3/envs/p4env/share/psi4/basis/def2-qzvp-ri.gbs 
    atoms 3      entry N          line   337 file /home/vance/anaconda3/envs/p4env/share/psi4/basis/def2-qzvp-ri.gbs 



  ==> E20 Dispersion (CHF FDDS) <== 

   Legendre Points:          10
   Lambda Shift:          0.300
   Fxc Kernal:             ALDA
   (P|Fxc|Q) Thresh:  1.000e-06
  DFHelper Memory: AOs need 0.424 GiB; user supplied 5.960 GiB. 
  Using in-core AOs.

  ==> DFHelper <==
    NBF:                             252
    NAux:                            961
    Schwarz Cutoff:                1E-12
    Mask sparsity (%):                13
    DFH Avail. Memory [GiB]:       5.960
    OpenMP threads:                    4
    Algorithm:                    DIRECT
    AO Core:                        True
    MO Core:                       False
    Hold Metric:                   False
    Metric Power:                  0.000
    Fitting Condition:             1E-12
    Q Shell Max:                      13


  DFHelper Memory: AOs need 0.482 GiB; user supplied 5.960 GiB. 
  Using in-core AOs.


   => Time Integration <= 

       Omega       Weight       Disp20,u         Disp20   time [s]
   2.269e+01    6.667e-02      2.051e-05      1.882e-05          4
   4.147e+00    1.495e-01      4.983e-04      4.257e-04          6
   1.572e+00    2.191e-01      2.145e-03      1.710e-03         10
   7.589e-01    2.693e-01      4.607e-03      3.395e-03         13
   4.049e-01    2.955e-01      5.921e-03      4.067e-03         19
   2.223e-01    2.955e-01      5.262e-03      3.407e-03         25
   1.186e-01    2.693e-01      3.763e-03      2.368e-03         33
   5.727e-02    2.191e-01      2.390e-03      1.487e-03         40
   2.170e-02    1.495e-01      1.347e-03      8.350e-04         45
   3.966e-03    6.667e-02      5.382e-04      3.334e-04         50

    Disp20,u                         -4.21631079 [mEh]
    Disp20                           -2.87215624 [mEh]

  ==> E20 Dispersion (MP2) <== 


    Disp20 (MP2)                     -4.21200152 [mEh]
    Exch-Disp20,u                     0.59861053 [mEh]
    Scaling Scheme                    FIXED
    Scaling Factor                    0.770
    Est. Exch-Disp20,r                0.46093011 [mEh]

   SAPT(DFT) Results
  ---------------------------------------------------------------------------------------------------------
    Electrostatics                   -8.50936962 [mEh]     -5.33971005 [kcal/mol]    -22.34134686 [kJ/mol]
      Elst1,r                        -8.50936962 [mEh]     -5.33971005 [kcal/mol]    -22.34134686 [kJ/mol]

    Exchange                          5.26533592 [mEh]      3.30404817 [kcal/mol]     13.82413756 [kJ/mol]
      Exch1                           5.26533592 [mEh]      3.30404817 [kcal/mol]     13.82413756 [kJ/mol]
      Exch1(S^2)                      5.23690386 [mEh]      3.28620678 [kcal/mol]     13.74948918 [kJ/mol]

    Induction                        -2.86964082 [mEh]     -1.80072680 [kcal/mol]     -7.53424094 [kJ/mol]
      Ind2,r                         -2.95165389 [mEh]     -1.85219078 [kcal/mol]     -7.74956621 [kJ/mol]
      Exch-Ind2,r                     1.45124694 [mEh]      0.91067120 [kcal/mol]      3.81024831 [kJ/mol]
      Induction (A<-B)               -0.65526269 [mEh]     -0.41118355 [kcal/mol]     -1.72039196 [kJ/mol]
      Induction (A->B)               -0.84514426 [mEh]     -0.53033603 [kcal/mol]     -2.21892595 [kJ/mol]
      delta HF,r (2)                 -1.36923387 [mEh]     -0.85920723 [kcal/mol]     -3.59492304 [kJ/mol]

    Dispersion                       -2.41122480 [mEh]     -1.51306640 [kcal/mol]     -6.33066983 [kJ/mol]
      Disp2,r                        -2.87215491 [mEh]     -1.80230441 [kcal/mol]     -7.54084167 [kJ/mol]
      Disp2,u                        -4.21200152 [mEh]     -2.64307086 [kcal/mol]    -11.05860846 [kJ/mol]
      Est. Exch-Disp2,r               0.46093011 [mEh]      0.28923801 [kcal/mol]      1.21017184 [kJ/mol]
      Exch-Disp2,u                    0.59861053 [mEh]      0.37563378 [kcal/mol]      1.57165173 [kJ/mol]

    Total SAPT(DFT)                  -8.52489932 [mEh]     -5.34945508 [kcal/mol]    -22.38212007 [kJ/mol]
  ---------------------------------------------------------------------------------------------------------

*** tstop() called on cmpsrv002 at Thu Sep 19 15:22:29 2024
Module time:
	user time   =     387.53 seconds =       6.46 minutes
	system time =      32.58 seconds =       0.54 minutes
	total time  =       3399 seconds =      56.65 minutes
Total time:
	user time   =     449.71 seconds =       7.50 minutes
	system time =      37.60 seconds =       0.63 minutes
	total time  =       3986 seconds =      66.43 minutes

    Psi4 stopped on: Thursday, 19 September 2024 03:22PM
    Psi4 wall time for execution: 1:06:26.00

*** Psi4 exiting successfully. Buy a developer a beer!
