
    -----------------------------------------------------------------------
          Psi4: An Open-Source Ab Initio Electronic Structure Package
                               Psi4 1.9.1 release

                         Git: Rev {} zzzzzzz 


    D. G. A. Smith, L. A. Burns, A. C. Simmonett, R. M. Parrish,
    M. C. Schieber, R. Galvelis, P. Kraus, H. Kruse, R. Di Remigio,
    A. Alenaizan, A. M. James, S. Lehtola, J. P. Misiewicz, M. Scheurer,
    R. A. Shaw, J. B. Schriber, Y. Xie, Z. L. Glick, D. A. Sirianni,
    J. S. O'Brien, J. M. Waldrop, A. Kumar, E. G. Hohenstein,
    B. P. Pritchard, B. R. Brooks, H. F. Schaefer III, A. Yu. Sokolov,
    K. Patkowski, A. E. DePrince III, U. Bozkaya, R. A. King,
    F. A. Evangelista, J. M. Turney, T. D. Crawford, C. D. Sherrill,
    J. Chem. Phys. 152(18) 184108 (2020). https://doi.org/10.1063/5.0006002

                            Additional Code Authors
    E. T. Seidl, C. L. Janssen, E. F. Valeev, M. L. Leininger,
    J. F. Gonthier, R. M. Richard, H. R. McAlexander, M. Saitow, X. Wang,
    P. Verma, M. H. Lechner, A. Jiang, S. Behnle, A. G. Heide,
    M. F. Herbst, and D. L. Poole

             Previous Authors, Complete List of Code Contributors,
                       and Citations for Specific Modules
    https://github.com/psi4/psi4/blob/master/codemeta.json
    https://github.com/psi4/psi4/graphs/contributors
    http://psicode.org/psi4manual/master/introduction.html#citing-psifour

    -----------------------------------------------------------------------


    Psi4 started on: Thursday, 19 September 2024 02:16PM

    Process ID: 605879
    Host:       cmpsrv002
    PSIDATADIR: /home/vance/anaconda3/envs/p4env/share/psi4
    Memory:     500.0 MiB
    Threads:    8
    
  ==> Input File <==

--------------------------------------------------------------------------
#charge=0 charge_a=0 charge_b=0 selection_a=1-2 selection_b=3-6 scaling=2.0 benchmark_Eint=-2.310 benchmark_unit=kcal/mol group=XH-N
set_num_threads(4)
memory 8 GB
basis this_basis {
    assign    def2-qzvp
}

molecule {
     0 1
    --
     0 1
     H        0.00002       -0.93248        0.00000
    Br       -0.00001        0.58174        0.00000
    --
     0 1
     N        0.00004       -4.22471        0.00000
     H       -0.47434       -4.57718        0.82165
     H       -0.47434       -4.57718       -0.82165
     H        0.94879       -4.57718        0.00000
}

set {
    sapt_dft_functional     PBE0
    scf_type                DF
    freeze_core             true
    sapt_dft_grac_shift_a    0.106591
    sapt_dft_grac_shift_b    0.113162
    sapt_dft_do_hybrid      true
    do_ind_exch_sinf        true
    do_disp_exch_sinf       true
}

nrg = energy('sapt(DFT)')
--------------------------------------------------------------------------
  Threads set to 4 by Python driver.

  Memory set to   7.451 GiB by Python driver.

Scratch directory: /scratch2/vance/psi4/

*** tstart() called on cmpsrv002
*** at Thu Sep 19 14:16:09 2024

  SAPT does not make use of molecular symmetry, further calculations in C1 point group.

         ---------------------------------------------------------
                            SAPT(DFT) Procedure                    

                           by Daniel G. A. Smith                   
         ---------------------------------------------------------

Warning! The default value of SAPT_DFT_EXCH_DISP_SCALE_SCHEME has changed from DISP to FIXED. Please be careful comparing results with earlier versions. 

  ==> Algorithm <==

   SAPT DFT Functional             PBE0
   Monomer A GRAC Shift        0.106591
   Monomer B GRAC Shift        0.113162
   Delta HF                        True
   JK Algorithm                      DF

   Required computations:
     HF  (Dimer)
     HF  (Monomer A)
     HF  (Monomer B)
     DFT (Monomer A)
     DFT (Monomer B)

   => Libint2 <=

    Primary   basis highest AM E, G, H:  6, 6, 3
    Auxiliary basis highest AM E, G, H:  7, 7, 4
    Onebody   basis highest AM E, G, H:  -, -, -
    Solid Harmonics ordering:            Gaussian

*** tstart() called on cmpsrv002
*** at Thu Sep 19 14:16:09 2024

   => Loading Basis Set <=

    Name: THIS_BASIS
    Role: ORBITAL
    Keyword: BASIS
    atoms 1, 4-6 entry H          line    15 file /home/vance/anaconda3/envs/p4env/share/psi4/basis/def2-qzvp.gbs 
    atoms 2      entry BR         line  2253 file /home/vance/anaconda3/envs/p4env/share/psi4/basis/def2-qzvp.gbs 
    atoms 3      entry N          line   242 file /home/vance/anaconda3/envs/p4env/share/psi4/basis/def2-qzvp.gbs 


         ---------------------------------------------------------
                         SAPT(DFT): delta HF Dimer                 
         ---------------------------------------------------------
                                   SCF
               by Justin Turney, Rob Parrish, Andy Simmonett
                          and Daniel G. A. Smith
                              RHF Reference
                        4 Threads,   7629 MiB Core
         ---------------------------------------------------------

  ==> Geometry <==

    Molecular point group: c1
    Full point group: Cs

    Geometry (in Angstrom), charge = 0, multiplicity = 1:

       Center              X                  Y                   Z               Mass       
    ------------   -----------------  -----------------  -----------------  -----------------
         H            0.000021011247    -0.643393300001     0.000000000000     1.007825032230
         BR          -0.000008988753     0.870826699999     0.000000000000    78.918337600000
         N            0.000041011247    -3.935623300001     0.000000000000    14.003074004430
         H           -0.474338988753    -4.288093300001     0.821650000000     1.007825032230
         H           -0.474338988753    -4.288093300001    -0.821650000000     1.007825032230
         H            0.948791011247    -4.288093300001     0.000000000000     1.007825032230

  Running in c1 symmetry.

  Rotational constants: A =      6.19413  B =      0.05045  C =      0.05045 [cm^-1]
  Rotational constants: A = 185695.44925  B =   1512.58931  C =   1512.58922 [MHz]
  Nuclear repulsion =   63.290562712962213

  Charge       = 0
  Multiplicity = 1
  Electrons    = 46
  Nalpha       = 23
  Nbeta        = 23

  ==> Algorithm <==

  SCF Algorithm Type is DF.
  DIIS enabled.
  MOM disabled.
  Fractional occupation disabled.
  Guess Type is SAD.
  Energy threshold   = 1.00e-08
  Density threshold  = 1.00e-08
  Integral threshold = 1.00e-12

  ==> Primary Basis <==

  Basis Set: THIS_BASIS
    Blend: DEF2-QZVP
    Number of shells: 82
    Number of basis functions: 252
    Number of Cartesian functions: 303
    Spherical Harmonics?: true
    Max angular momentum: 4

   => Loading Basis Set <=

    Name: (THIS_BASIS AUX)
    Role: JKFIT
    Keyword: DF_BASIS_SCF
    atoms 1, 4-6 entry H          line    18 file /home/vance/anaconda3/envs/p4env/share/psi4/basis/def2-universal-jkfit.gbs 
    atoms 2      entry BR         line  3124 file /home/vance/anaconda3/envs/p4env/share/psi4/basis/def2-universal-jkfit.gbs 
    atoms 3      entry N          line   258 file /home/vance/anaconda3/envs/p4env/share/psi4/basis/def2-universal-jkfit.gbs 

  ==> Integral Setup <==

  ==> DiskDFJK: Density-Fitted J/K Matrices <==

    J tasked:                  Yes
    K tasked:                  Yes
    wK tasked:                  No
    OpenMP threads:              4
    Integrals threads:           4
    Memory [MiB]:             5722
    Algorithm:                Core
    Integral Cache:           SAVE
    Schwarz Cutoff:          1E-12
    Fitting Condition:       1E-10

   => Auxiliary Basis Set <=

  Basis Set: (THIS_BASIS AUX)
    Blend: DEF2-UNIVERSAL-JKFIT
    Number of shells: 109
    Number of basis functions: 415
    Number of Cartesian functions: 544
    Spherical Harmonics?: true
    Max angular momentum: 5

  Minimum eigenvalue in the overlap matrix is 1.6859253087E-04.
  Reciprocal condition number of the overlap matrix is 2.1170497710E-05.
    Using symmetric orthogonalization.

  ==> Pre-Iterations <==

  SCF Guess: Superposition of Atomic Densities via on-the-fly atomic UHF (no occupation information).

   -------------------------
    Irrep   Nso     Nmo    
   -------------------------
     A        252     252 
   -------------------------
    Total     252     252
   -------------------------

  ==> Iterations <==

                           Total Energy        Delta E     RMS |[F,P]|

   @DF-RHF iter SAD: -2626.75865359771024   -2.62676e+03   0.00000e+00 
   @DF-RHF iter   1: -2628.88102631576157   -2.12237e+00   7.05269e-03 DIIS/ADIIS
   @DF-RHF iter   2: -2629.13541285054907   -2.54387e-01   4.64809e-03 DIIS/ADIIS
   @DF-RHF iter   3: -2629.27276275720442   -1.37350e-01   1.57160e-04 DIIS/ADIIS
   @DF-RHF iter   4: -2629.27383397875246   -1.07122e-03   4.94555e-05 DIIS
   @DF-RHF iter   5: -2629.27396889699048   -1.34918e-04   1.68204e-05 DIIS
   @DF-RHF iter   6: -2629.27398541836146   -1.65214e-05   4.97234e-06 DIIS
   @DF-RHF iter   7: -2629.27398664735892   -1.22900e-06   1.00769e-06 DIIS
   @DF-RHF iter   8: -2629.27398674690721   -9.95483e-08   2.95547e-07 DIIS
   @DF-RHF iter   9: -2629.27398675308223   -6.17501e-09   5.76543e-08 DIIS
   @DF-RHF iter  10: -2629.27398675339782   -3.15595e-10   1.13886e-08 DIIS
   @DF-RHF iter  11: -2629.27398675341283   -1.50067e-11   3.37887e-09 DIIS
  Energy and wave function converged.


  ==> Post-Iterations <==

    Orbital Energies [Eh]
    ---------------------

    Doubly Occupied:                                                      

       1A   -490.027146     2A    -65.166742     3A    -58.522280  
       4A    -58.520903     5A    -58.520903     6A    -15.550194  
       7A     -9.838671     8A     -7.449957     9A     -7.443677  
      10A     -7.443677    11A     -3.193783    12A     -3.190177  
      13A     -3.190177    14A     -3.181949    15A     -3.181949  
      16A     -1.150135    17A     -1.007987    18A     -0.642548  
      19A     -0.642546    20A     -0.551044    21A     -0.436945  
      22A     -0.421635    23A     -0.421635  

    Virtual:                                                              

      24A      0.085217    25A      0.120566    26A      0.151582  
      27A      0.151582    28A      0.231200    29A      0.270553  
      30A      0.273166    31A      0.273166    32A      0.312090  
      33A      0.312091    34A      0.336278    35A      0.429713  
      36A      0.429713    37A      0.451053    38A      0.486546  
      39A      0.486546    40A      0.510960    41A      0.513153  
      42A      0.513155    43A      0.547224    44A      0.547224  
      45A      0.576055    46A      0.714927    47A      0.772221  
      48A      0.772221    49A      0.859040    50A      0.879661  
      51A      0.891046    52A      0.891046    53A      1.009790  
      54A      1.009791    55A      1.034294    56A      1.068267  
      57A      1.068270    58A      1.070054    59A      1.157318  
      60A      1.189539    61A      1.196876    62A      1.196876  
      63A      1.222180    64A      1.222180    65A      1.264130  
      66A      1.264130    67A      1.278161    68A      1.278161  
      69A      1.300974    70A      1.367612    71A      1.367612  
      72A      1.384969    73A      1.421443    74A      1.421445  
      75A      1.504718    76A      1.670656    77A      1.707190  
      78A      1.707190    79A      1.722987    80A      1.722987  
      81A      1.831178    82A      1.831179    83A      1.842249  
      84A      2.186955    85A      2.186955    86A      2.190141  
      87A      2.282703    88A      2.293630    89A      2.293632  
      90A      2.332940    91A      2.366354    92A      2.366354  
      93A      2.385236    94A      2.472029    95A      2.472029  
      96A      2.521017    97A      2.521018    98A      2.574933  
      99A      2.590420   100A      2.590427   101A      2.618063  
     102A      2.618064   103A      2.703870   104A      2.736846  
     105A      2.736846   106A      2.776150   107A      2.819989  
     108A      2.819990   109A      2.856010   110A      3.003562  
     111A      3.003562   112A      3.018245   113A      3.022286  
     114A      3.022286   115A      3.040272   116A      3.040272  
     117A      3.046790   118A      3.046791   119A      3.075975  
     120A      3.075975   121A      3.081900   122A      3.154621  
     123A      3.154621   124A      3.181129   125A      3.181131  
     126A      3.214385   127A      3.214385   128A      3.222363  
     129A      3.421937   130A      3.519823   131A      3.519827  
     132A      3.589077   133A      3.598030   134A      3.776086  
     135A      3.787670   136A      3.787670   137A      3.807995  
     138A      3.940487   139A      3.940497   140A      4.179042  
     141A      4.310358   142A      4.310358   143A      4.345614  
     144A      4.345624   145A      4.516711   146A      4.561414  
     147A      4.619911   148A      4.619922   149A      5.052490  
     150A      5.409302   151A      5.409315   152A      5.436677  
     153A      5.450202   154A      5.450202   155A      5.493913  
     156A      5.493913   157A      6.064406   158A      6.064406  
     159A      6.148398   160A      6.148400   161A      6.249228  
     162A      6.249236   163A      6.271916   164A      6.317179  
     165A      6.351214   166A      6.351214   167A      6.356806  
     168A      6.356815   169A      6.628112   170A      6.778884  
     171A      6.886476   172A      6.924992   173A      6.924997  
     174A      6.929815   175A      6.929815   176A      7.070938  
     177A      7.105933   178A      7.105935   179A      7.254657  
     180A      7.329219   181A      7.329236   182A      7.526988  
     183A      7.575525   184A      7.575529   185A      7.585233  
     186A      7.678985   187A      7.678986   188A      7.778761  
     189A      7.917747   190A      7.959248   191A      7.959249  
     192A      8.031377   193A      8.031377   194A      8.119302  
     195A      8.119304   196A      8.214735   197A      8.214735  
     198A      8.271517   199A      8.271524   200A      8.284621  
     201A      8.312646   202A      8.354748   203A      8.354749  
     204A      8.357339   205A      8.478133   206A      8.505887  
     207A      8.647086   208A      8.673646   209A      8.673656  
     210A      8.730657   211A      8.730657   212A      8.812146  
     213A      8.880424   214A      8.880432   215A      8.923231  
     216A      9.026611   217A      9.026615   218A      9.068744  
     219A      9.436268   220A      9.533923   221A      9.533923  
     222A      9.661632   223A      9.819595   224A      9.819600  
     225A     10.000362   226A     10.112428   227A     10.112430  
     228A     10.301305   229A     10.525229   230A     10.525230  
     231A     10.531330   232A     11.570966   233A     11.686134  
     234A     11.686156   235A     12.049964   236A     12.111022  
     237A     12.111033   238A     12.292521   239A     12.292566  
     240A     12.459683   241A     14.425183   242A     14.425183  
     243A     14.717360   244A     14.819514   245A     14.819514  
     246A     15.690553   247A     30.068486   248A     39.362978  
     249A     96.584591   250A    200.458498   251A    325.111996  
     252A   1827.981895  

    Final Occupation by Irrep:
              A 
    DOCC [    23 ]
    NA   [    23 ]
    NB   [    23 ]

  @DF-RHF Final Energy: -2629.27398675341283

   => Energetics <=

    Nuclear Repulsion Energy =             63.2905627129622133
    One-Electron Energy =               -3785.7357740226912028
    Two-Electron Energy =                1093.1712245563164743
    Total Energy =                      -2629.2739867534128280

Computation Completed


Properties will be evaluated at   0.000000,   0.000000,   0.000000 [a0]

Properties computed using the SCF density matrix


 Multipole Moments:

 ------------------------------------------------------------------------------------
     Multipole            Electronic (a.u.)      Nuclear  (a.u.)        Total (a.u.)
 ------------------------------------------------------------------------------------

 L = 1.  Multiply by 2.5417464519 to convert [e a0] to [Debye]
 Dipole X            :         -0.0001935            0.0002013            0.0000078
 Dipole Y            :         18.8307034          -19.9897153           -1.1590120
 Dipole Z            :          0.0000000            0.0000000            0.0000000
 Magnitude           :                                                    1.1590120

 ------------------------------------------------------------------------------------

*** tstop() called on cmpsrv002 at Thu Sep 19 14:19:19 2024
Module time:
	user time   =      13.70 seconds =       0.23 minutes
	system time =       1.58 seconds =       0.03 minutes
	total time  =        190 seconds =       3.17 minutes
Total time:
	user time   =      13.71 seconds =       0.23 minutes
	system time =       1.58 seconds =       0.03 minutes
	total time  =        190 seconds =       3.17 minutes
   => Libint2 <=

    Primary   basis highest AM E, G, H:  6, 6, 3
    Auxiliary basis highest AM E, G, H:  7, 7, 4
    Onebody   basis highest AM E, G, H:  -, -, -
    Solid Harmonics ordering:            Gaussian

*** tstart() called on cmpsrv002
*** at Thu Sep 19 14:19:19 2024

   => Loading Basis Set <=

    Name: THIS_BASIS
    Role: ORBITAL
    Keyword: BASIS
    atoms 1, 4-6 entry H          line    15 file /home/vance/anaconda3/envs/p4env/share/psi4/basis/def2-qzvp.gbs 
    atoms 2      entry BR         line  2253 file /home/vance/anaconda3/envs/p4env/share/psi4/basis/def2-qzvp.gbs 
    atoms 3      entry N          line   242 file /home/vance/anaconda3/envs/p4env/share/psi4/basis/def2-qzvp.gbs 


         ---------------------------------------------------------
                       SAPT(DFT): delta HF Monomer A               
         ---------------------------------------------------------
                                   SCF
               by Justin Turney, Rob Parrish, Andy Simmonett
                          and Daniel G. A. Smith
                              RHF Reference
                        4 Threads,   7629 MiB Core
         ---------------------------------------------------------

  ==> Geometry <==

    Molecular point group: c1
    Full point group: Cs

    Geometry (in Angstrom), charge = 0, multiplicity = 1:

       Center              X                  Y                   Z               Mass       
    ------------   -----------------  -----------------  -----------------  -----------------
         H            0.000021011247    -0.643393300001     0.000000000000     1.007825032230
         BR          -0.000008988753     0.870826699999     0.000000000000    78.918337600000
      Gh(N)           0.000041011247    -3.935623300001     0.000000000000    14.003074004430
      Gh(H)          -0.474338988753    -4.288093300001     0.821650000000     1.007825032230
      Gh(H)          -0.474338988753    -4.288093300001    -0.821650000000     1.007825032230
      Gh(H)           0.948791011247    -4.288093300001     0.000000000000     1.007825032230

  Running in c1 symmetry.

  Rotational constants: A =      6.19413  B =      0.05045  C =      0.05045 [cm^-1]
  Rotational constants: A = 185695.44925  B =   1512.58931  C =   1512.58922 [MHz]
  Nuclear repulsion =   12.231513498576831

  Charge       = 0
  Multiplicity = 1
  Electrons    = 36
  Nalpha       = 18
  Nbeta        = 18

  ==> Algorithm <==

  SCF Algorithm Type is DF.
  DIIS enabled.
  MOM disabled.
  Fractional occupation disabled.
  Guess Type is SAD.
  Energy threshold   = 1.00e-08
  Density threshold  = 1.00e-08
  Integral threshold = 1.00e-12

  ==> Primary Basis <==

  Basis Set: THIS_BASIS
    Blend: DEF2-QZVP
    Number of shells: 82
    Number of basis functions: 252
    Number of Cartesian functions: 303
    Spherical Harmonics?: true
    Max angular momentum: 4

   => Loading Basis Set <=

    Name: (THIS_BASIS AUX)
    Role: JKFIT
    Keyword: DF_BASIS_SCF
    atoms 1, 4-6 entry H          line    18 file /home/vance/anaconda3/envs/p4env/share/psi4/basis/def2-universal-jkfit.gbs 
    atoms 2      entry BR         line  3124 file /home/vance/anaconda3/envs/p4env/share/psi4/basis/def2-universal-jkfit.gbs 
    atoms 3      entry N          line   258 file /home/vance/anaconda3/envs/p4env/share/psi4/basis/def2-universal-jkfit.gbs 

  ==> Integral Setup <==

  ==> DiskDFJK: Density-Fitted J/K Matrices <==

    J tasked:                  Yes
    K tasked:                  Yes
    wK tasked:                  No
    OpenMP threads:              4
    Integrals threads:           4
    Memory [MiB]:             5722
    Algorithm:                Core
    Integral Cache:           SAVE
    Schwarz Cutoff:          1E-12
    Fitting Condition:       1E-10

   => Auxiliary Basis Set <=

  Basis Set: (THIS_BASIS AUX)
    Blend: DEF2-UNIVERSAL-JKFIT
    Number of shells: 109
    Number of basis functions: 415
    Number of Cartesian functions: 544
    Spherical Harmonics?: true
    Max angular momentum: 5

  Minimum eigenvalue in the overlap matrix is 1.6859253087E-04.
  Reciprocal condition number of the overlap matrix is 2.1170497710E-05.
    Using symmetric orthogonalization.

  ==> Pre-Iterations <==

  SCF Guess: Superposition of Atomic Densities via on-the-fly atomic UHF (no occupation information).

   -------------------------
    Irrep   Nso     Nmo    
   -------------------------
     A        252     252 
   -------------------------
    Total     252     252
   -------------------------

  ==> Iterations <==

                           Total Energy        Delta E     RMS |[F,P]|

   @DF-RHF iter SAD: -2571.10346209454838   -2.57110e+03   0.00000e+00 
   @DF-RHF iter   1: -2572.74131739908762   -1.63786e+00   6.82329e-03 DIIS/ADIIS
   @DF-RHF iter   2: -2572.93166461498549   -1.90347e-01   4.54398e-03 DIIS/ADIIS
   @DF-RHF iter   3: -2573.04561943430099   -1.13955e-01   1.02310e-04 DIIS/ADIIS
   @DF-RHF iter   4: -2573.04611629219607   -4.96858e-04   3.63579e-05 DIIS
   @DF-RHF iter   5: -2573.04619729125397   -8.09991e-05   1.04106e-05 DIIS
   @DF-RHF iter   6: -2573.04620704249373   -9.75124e-06   2.14864e-06 DIIS
   @DF-RHF iter   7: -2573.04620733425327   -2.91760e-07   3.95585e-07 DIIS
   @DF-RHF iter   8: -2573.04620734388527   -9.63200e-09   5.51203e-08 DIIS
   @DF-RHF iter   9: -2573.04620734415130   -2.66027e-10   7.54712e-09 DIIS
  Energy and wave function converged.


  ==> Post-Iterations <==

    Orbital Energies [Eh]
    ---------------------

    Doubly Occupied:                                                      

       1A   -490.040241     2A    -65.179768     3A    -58.535347  
       4A    -58.533889     5A    -58.533889     6A     -9.851653  
       7A     -7.463085     8A     -7.456509     9A     -7.456509  
      10A     -3.207001    11A     -3.203254    12A     -3.203254  
      13A     -3.194642    14A     -3.194642    15A     -1.020359  
      16A     -0.564619    17A     -0.433438    18A     -0.433438  

    Virtual:                                                              

      19A      0.051844    20A      0.101043    21A      0.141348  
      22A      0.141348    23A      0.205625    24A      0.245459  
      25A      0.268742    26A      0.268742    27A      0.293152  
      28A      0.318010    29A      0.318010    30A      0.330861  
      31A      0.415722    32A      0.415722    33A      0.475812  
      34A      0.475812    35A      0.485503    36A      0.533246  
      37A      0.533247    38A      0.561917    39A      0.663203  
      40A      0.663203    41A      0.671712    42A      0.775475  
      43A      0.775475    44A      0.879012    45A      0.906592  
      46A      0.948023    47A      0.949069    48A      0.949070  
      49A      0.995334    50A      1.045340    51A      1.068666  
      52A      1.068666    53A      1.117827    54A      1.117827  
      55A      1.120191    56A      1.185230    57A      1.185230  
      58A      1.211318    59A      1.211318    60A      1.253593  
      61A      1.253593    62A      1.260170    63A      1.304125  
      64A      1.334407    65A      1.334407    66A      1.388939  
      67A      1.388940    68A      1.456212    69A      1.456212  
      70A      1.466585    71A      1.652361    72A      1.695576  
      73A      1.695576    74A      1.711868    75A      1.711868  
      76A      1.828868    77A      2.009433    78A      2.115862  
      79A      2.115863    80A      2.170967    81A      2.170967  
      82A      2.238684    83A      2.303255    84A      2.355902  
      85A      2.355902    86A      2.452187    87A      2.452188  
      88A      2.474806    89A      2.533823    90A      2.533826  
      91A      2.549545    92A      2.644510    93A      2.669536  
      94A      2.669537    95A      2.689744    96A      2.713876  
      97A      2.713876    98A      2.819937    99A      2.819939  
     100A      2.832964   101A      2.832965   102A      2.870875  
     103A      2.943238   104A      2.943243   105A      2.991537  
     106A      2.991537   107A      3.010855   108A      3.010855  
     109A      3.027778   110A      3.027778   111A      3.036789  
     112A      3.064246   113A      3.064247   114A      3.094578  
     115A      3.140337   116A      3.140337   117A      3.155372  
     118A      3.155374   119A      3.201343   120A      3.201343  
     121A      3.253100   122A      3.307390   123A      3.431067  
     124A      3.444465   125A      3.444468   126A      3.575271  
     127A      3.732063   128A      3.732063   129A      3.767663  
     130A      3.774082   131A      3.774082   132A      3.849814  
     133A      3.932457   134A      3.932462   135A      4.160793  
     136A      4.298261   137A      4.298261   138A      4.404457  
     139A      4.414265   140A      4.513286   141A      4.555119  
     142A      4.555126   143A      5.053713   144A      5.053714  
     145A      5.385002   146A      5.435483   147A      5.437981  
     148A      5.437981   149A      5.480625   150A      5.480625  
     151A      6.016337   152A      6.016355   153A      6.049276  
     154A      6.049276   155A      6.335313   156A      6.335313  
     157A      6.437433   158A      6.437433   159A      6.465309  
     160A      6.465313   161A      6.542507   162A      6.559696  
     163A      6.620524   164A      6.758826   165A      6.758840  
     166A      6.915701   167A      6.915701   168A      7.060350  
     169A      7.125836   170A      7.125837   171A      7.346324  
     172A      7.385278   173A      7.385282   174A      7.407291  
     175A      7.652250   176A      7.774065   177A      7.774066  
     178A      7.910272   179A      8.006202   180A      8.006202  
     181A      8.127535   182A      8.134292   183A      8.134293  
     184A      8.200191   185A      8.200191   186A      8.223053  
     187A      8.347939   188A      8.447851   189A      8.447856  
     190A      8.462077   191A      8.573732   192A      8.573737  
     193A      8.714095   194A      8.714095   195A      8.746969  
     196A      8.746972   197A      8.764811   198A      8.800362  
     199A      8.874734   200A      8.919958   201A      8.919961  
     202A      8.983053   203A      8.983054   204A      8.998389  
     205A      9.055038   206A      9.097106   207A      9.315935  
     208A      9.315940   209A      9.485125   210A      9.488893  
     211A      9.646277   212A      9.693469   213A      9.693479  
     214A      9.921724   215A     10.081689   216A     10.081701  
     217A     10.175962   218A     10.175977   219A     10.251532  
     220A     10.681395   221A     10.681401   222A     11.011131  
     223A     11.011135   224A     11.211799   225A     11.304901  
     226A     11.756822   227A     11.756830   228A     12.358912  
     229A     12.358961   230A     12.757101   231A     13.696235  
     232A     13.858930   233A     13.858953   234A     14.115236  
     235A     14.286817   236A     14.286843   237A     14.413237  
     238A     14.413237   239A     14.539353   240A     14.570593  
     241A     14.570615   242A     14.704356   243A     15.961915  
     244A     18.182796   245A     18.182825   246A     25.502563  
     247A     30.055590   248A     70.251750   249A     96.571611  
     250A    318.584355   251A    325.098964   252A   1827.968816  

    Final Occupation by Irrep:
              A 
    DOCC [    18 ]
    NA   [    18 ]
    NB   [    18 ]

  @DF-RHF Final Energy: -2573.04620734415130

   => Energetics <=

    Nuclear Repulsion Energy =             12.2315134985768310
    One-Electron Energy =               -3607.5443702783245499
    Two-Electron Energy =                1022.2666494355961504
    Total Energy =                      -2573.0462073441512985

Computation Completed


Properties will be evaluated at   0.000000,   0.000000,   0.000000 [a0]

Properties computed using the SCF density matrix


 Multipole Moments:

 ------------------------------------------------------------------------------------
     Multipole            Electronic (a.u.)      Nuclear  (a.u.)        Total (a.u.)
 ------------------------------------------------------------------------------------

 L = 1.  Multiply by 2.5417464519 to convert [e a0] to [Debye]
 Dipole X            :          0.0005630           -0.0005548            0.0000082
 Dipole Y            :        -56.7930979           56.3810017           -0.4120962
 Dipole Z            :         -0.0000000            0.0000000           -0.0000000
 Magnitude           :                                                    0.4120962

 ------------------------------------------------------------------------------------

*** tstop() called on cmpsrv002 at Thu Sep 19 14:20:48 2024
Module time:
	user time   =      11.49 seconds =       0.19 minutes
	system time =       0.84 seconds =       0.01 minutes
	total time  =         89 seconds =       1.48 minutes
Total time:
	user time   =      25.20 seconds =       0.42 minutes
	system time =       2.42 seconds =       0.04 minutes
	total time  =        279 seconds =       4.65 minutes
   => Libint2 <=

    Primary   basis highest AM E, G, H:  6, 6, 3
    Auxiliary basis highest AM E, G, H:  7, 7, 4
    Onebody   basis highest AM E, G, H:  -, -, -
    Solid Harmonics ordering:            Gaussian

*** tstart() called on cmpsrv002
*** at Thu Sep 19 14:20:48 2024

   => Loading Basis Set <=

    Name: THIS_BASIS
    Role: ORBITAL
    Keyword: BASIS
    atoms 1, 4-6 entry H          line    15 file /home/vance/anaconda3/envs/p4env/share/psi4/basis/def2-qzvp.gbs 
    atoms 2      entry BR         line  2253 file /home/vance/anaconda3/envs/p4env/share/psi4/basis/def2-qzvp.gbs 
    atoms 3      entry N          line   242 file /home/vance/anaconda3/envs/p4env/share/psi4/basis/def2-qzvp.gbs 


         ---------------------------------------------------------
                       SAPT(DFT): delta HF Monomer B               
         ---------------------------------------------------------
                                   SCF
               by Justin Turney, Rob Parrish, Andy Simmonett
                          and Daniel G. A. Smith
                              RHF Reference
                        4 Threads,   7629 MiB Core
         ---------------------------------------------------------

  ==> Geometry <==

    Molecular point group: c1
    Full point group: Cs

    Geometry (in Angstrom), charge = 0, multiplicity = 1:

       Center              X                  Y                   Z               Mass       
    ------------   -----------------  -----------------  -----------------  -----------------
      Gh(H)           0.000021011247    -0.643393300001     0.000000000000     1.007825032230
      Gh(BR)         -0.000008988753     0.870826699999     0.000000000000    78.918337600000
         N            0.000041011247    -3.935623300001     0.000000000000    14.003074004430
         H           -0.474338988753    -4.288093300001     0.821650000000     1.007825032230
         H           -0.474338988753    -4.288093300001    -0.821650000000     1.007825032230
         H            0.948791011247    -4.288093300001     0.000000000000     1.007825032230

  Running in c1 symmetry.

  Rotational constants: A =      6.19413  B =      0.05045  C =      0.05045 [cm^-1]
  Rotational constants: A = 185695.44925  B =   1512.58931  C =   1512.58922 [MHz]
  Nuclear repulsion =   11.945783476959878

  Charge       = 0
  Multiplicity = 1
  Electrons    = 10
  Nalpha       = 5
  Nbeta        = 5

  ==> Algorithm <==

  SCF Algorithm Type is DF.
  DIIS enabled.
  MOM disabled.
  Fractional occupation disabled.
  Guess Type is SAD.
  Energy threshold   = 1.00e-08
  Density threshold  = 1.00e-08
  Integral threshold = 1.00e-12

  ==> Primary Basis <==

  Basis Set: THIS_BASIS
    Blend: DEF2-QZVP
    Number of shells: 82
    Number of basis functions: 252
    Number of Cartesian functions: 303
    Spherical Harmonics?: true
    Max angular momentum: 4

   => Loading Basis Set <=

    Name: (THIS_BASIS AUX)
    Role: JKFIT
    Keyword: DF_BASIS_SCF
    atoms 1, 4-6 entry H          line    18 file /home/vance/anaconda3/envs/p4env/share/psi4/basis/def2-universal-jkfit.gbs 
    atoms 2      entry BR         line  3124 file /home/vance/anaconda3/envs/p4env/share/psi4/basis/def2-universal-jkfit.gbs 
    atoms 3      entry N          line   258 file /home/vance/anaconda3/envs/p4env/share/psi4/basis/def2-universal-jkfit.gbs 

  ==> Integral Setup <==

  ==> DiskDFJK: Density-Fitted J/K Matrices <==

    J tasked:                  Yes
    K tasked:                  Yes
    wK tasked:                  No
    OpenMP threads:              4
    Integrals threads:           4
    Memory [MiB]:             5722
    Algorithm:                Core
    Integral Cache:           SAVE
    Schwarz Cutoff:          1E-12
    Fitting Condition:       1E-10

   => Auxiliary Basis Set <=

  Basis Set: (THIS_BASIS AUX)
    Blend: DEF2-UNIVERSAL-JKFIT
    Number of shells: 109
    Number of basis functions: 415
    Number of Cartesian functions: 544
    Spherical Harmonics?: true
    Max angular momentum: 5

  Minimum eigenvalue in the overlap matrix is 1.6859253087E-04.
  Reciprocal condition number of the overlap matrix is 2.1170497710E-05.
    Using symmetric orthogonalization.

  ==> Pre-Iterations <==

  SCF Guess: Superposition of Atomic Densities via on-the-fly atomic UHF (no occupation information).

   -------------------------
    Irrep   Nso     Nmo    
   -------------------------
     A        252     252 
   -------------------------
    Total     252     252
   -------------------------

  ==> Iterations <==

                           Total Energy        Delta E     RMS |[F,P]|

   @DF-RHF iter SAD:   -55.65138072237276   -5.56514e+01   0.00000e+00 
   @DF-RHF iter   1:   -56.12995311595041   -4.78572e-01   1.82290e-03 DIIS/ADIIS
   @DF-RHF iter   2:   -56.19695908762024   -6.70060e-02   1.04957e-03 DIIS/ADIIS
   @DF-RHF iter   3:   -56.22373239326748   -2.67733e-02   9.74052e-05 DIIS
   @DF-RHF iter   4:   -56.22435988138080   -6.27488e-04   1.80512e-05 DIIS
   @DF-RHF iter   5:   -56.22438013560630   -2.02542e-05   3.34220e-06 DIIS
   @DF-RHF iter   6:   -56.22438130579682   -1.17019e-06   8.45949e-07 DIIS
   @DF-RHF iter   7:   -56.22438138591556   -8.01187e-08   1.89094e-07 DIIS
   @DF-RHF iter   8:   -56.22438139022704   -4.31147e-09   2.95757e-08 DIIS
   @DF-RHF iter   9:   -56.22438139033165   -1.04613e-10   8.44051e-09 DIIS
  Energy and wave function converged.


  ==> Post-Iterations <==

    Orbital Energies [Eh]
    ---------------------

    Doubly Occupied:                                                      

       1A    -15.538173     2A     -1.138476     3A     -0.631048  
       4A     -0.631046     5A     -0.423874  

    Virtual:                                                              

       6A      0.094550     7A      0.116114     8A      0.157556  
       9A      0.157556    10A      0.186305    11A      0.186548  
      12A      0.186549    13A      0.301487    14A      0.318760  
      15A      0.318760    16A      0.352007    17A      0.481646  
      18A      0.511881    19A      0.522240    20A      0.522242  
      21A      0.555289    22A      0.555289    23A      0.566293  
      24A      0.665140    25A      0.665140    26A      0.689790  
      27A      0.689790    28A      0.702219    29A      0.736619  
      30A      0.736619    31A      0.816010    32A      0.857528  
      33A      0.857529    34A      0.866043    35A      0.868228  
      36A      0.980582    37A      0.993990    38A      0.993991  
      39A      1.020398    40A      1.020399    41A      1.078984  
      42A      1.078987    43A      1.096208    44A      1.212180  
      45A      1.278514    46A      1.289258    47A      1.289258  
      48A      1.394433    49A      1.431347    50A      1.431348  
      51A      1.434239    52A      1.434240    53A      1.440109  
      54A      1.440109    55A      1.510507    56A      1.534260  
      57A      1.637805    58A      1.637805    59A      1.831466  
      60A      1.831467    61A      1.869533    62A      1.869533  
      63A      1.877771    64A      2.004921    65A      2.203812  
      66A      2.304835    67A      2.304836    68A      2.342896  
      69A      2.365458    70A      2.392907    71A      2.392907  
      72A      2.395740    73A      2.398374    74A      2.398374  
      75A      2.443606    76A      2.459939    77A      2.459939  
      78A      2.480274    79A      2.480274    80A      2.528960  
      81A      2.528961    82A      2.598788    83A      2.598795  
      84A      2.628332    85A      2.628333    86A      2.658195  
      87A      2.780209    88A      2.807486    89A      2.807486  
      90A      2.838224    91A      2.838226    92A      2.869648  
      93A      3.030276    94A      3.044345    95A      3.044345  
      96A      3.060869    97A      3.060871    98A      3.135299  
      99A      3.190917   100A      3.190919   101A      3.232236  
     102A      3.436244   103A      3.532682   104A      3.532686  
     105A      3.574815   106A      3.574815   107A      3.579214  
     108A      3.579214   109A      3.609590   110A      3.706217  
     111A      3.745274   112A      3.745274   113A      3.821085  
     114A      3.951584   115A      3.951594   116A      4.191026  
     117A      4.356234   118A      4.356244   119A      4.372932  
     120A      4.383124   121A      4.383124   122A      4.499213  
     123A      4.499213   124A      4.509300   125A      4.509300  
     126A      4.543566   127A      4.543566   128A      4.569206  
     129A      4.616520   130A      4.616955   131A      4.616955  
     132A      4.631339   133A      4.631350   134A      5.063958  
     135A      5.256225   136A      5.287626   137A      5.420413  
     138A      5.420425   139A      6.159712   140A      6.159714  
     141A      6.260019   142A      6.260026   143A      6.283789  
     144A      6.327982   145A      6.345697   146A      6.345697  
     147A      6.367845   148A      6.367854   149A      6.656904  
     150A      6.656904   151A      6.789689   152A      6.827377  
     153A      6.827377   154A      6.893909   155A      6.937025  
     156A      6.937030   157A      6.964481   158A      6.964481  
     159A      6.994537   160A      7.117271   161A      7.117273  
     162A      7.265315   163A      7.338260   164A      7.338277  
     165A      7.479015   166A      7.543533   167A      7.586326  
     168A      7.586331   169A      7.589301   170A      7.593135  
     171A      7.593135   172A      7.690459   173A      7.690460  
     174A      7.779551   175A      7.926374   176A      7.979690  
     177A      7.979690   178A      8.129896   179A      8.129899  
     180A      8.282465   181A      8.282472   182A      8.295727  
     183A      8.323652   184A      8.327988   185A      8.365556  
     186A      8.365557   187A      8.516938   188A      8.567465  
     189A      8.658353   190A      8.685214   191A      8.685224  
     192A      8.793834   193A      8.793834   194A      8.830936  
     195A      8.889406   196A      8.889413   197A      8.933123  
     198A      8.933123   199A      8.937703   200A      9.039676  
     201A      9.039679   202A      9.340056   203A      9.340056  
     204A      9.449458   205A      9.545685   206A      9.545686  
     207A      9.669816   208A      9.831009   209A      9.831014  
     210A     10.013547   211A     10.124531   212A     10.124533  
     213A     10.313081   214A     10.536606   215A     10.536606  
     216A     10.543009   217A     10.788689   218A     10.949795  
     219A     10.949795   220A     11.463127   221A     11.582797  
     222A     11.697491   223A     11.697513   224A     12.061917  
     225A     12.122587   226A     12.122598   227A     12.304347  
     228A     12.304391   229A     12.470843   230A     12.829087  
     231A     14.830431   232A     14.830432   233A     15.702037  
     234A     28.687536   235A     28.687536   236A     28.884911  
     237A     29.155460   238A     35.252188   239A     35.252188  
     240A     35.401208   241A     35.401208   242A     35.987218  
     243A     39.375044   244A     64.473039   245A    141.397546  
     246A    164.994263   247A    164.994263   248A    165.292826  
     249A    200.470660   250A    325.042991   251A    874.291373  
     252A   3948.156519  

    Final Occupation by Irrep:
              A 
    DOCC [     5 ]
    NA   [     5 ]
    NB   [     5 ]

  @DF-RHF Final Energy:   -56.22438139033165

   => Energetics <=

    Nuclear Repulsion Energy =             11.9457834769598783
    One-Electron Energy =                 -99.6150926624496122
    Two-Electron Energy =                  31.4449277951580868
    Total Energy =                        -56.2243813903316507

Computation Completed


Properties will be evaluated at   0.000000,   0.000000,   0.000000 [a0]

Properties computed using the SCF density matrix


 Multipole Moments:

 ------------------------------------------------------------------------------------
     Multipole            Electronic (a.u.)      Nuclear  (a.u.)        Total (a.u.)
 ------------------------------------------------------------------------------------

 L = 1.  Multiply by 2.5417464519 to convert [e a0] to [Debye]
 Dipole X            :         -0.0007579            0.0007561           -0.0000018
 Dipole Y            :         75.7628498          -76.3707170           -0.6078672
 Dipole Z            :         -0.0000000            0.0000000           -0.0000000
 Magnitude           :                                                    0.6078672

 ------------------------------------------------------------------------------------

*** tstop() called on cmpsrv002 at Thu Sep 19 14:22:49 2024
Module time:
	user time   =      10.15 seconds =       0.17 minutes
	system time =       0.83 seconds =       0.01 minutes
	total time  =        121 seconds =       2.02 minutes
Total time:
	user time   =      35.35 seconds =       0.59 minutes
	system time =       3.25 seconds =       0.05 minutes
	total time  =        400 seconds =       6.67 minutes

         ---------------------------------------------------------
                        SAPT(DFT): delta HF Segment                

                   by Daniel G. A. Smith and Rob Parrish           
         ---------------------------------------------------------


  ==> Preparing SAPT Data Cache <== 

  ==> DiskDFJK: Density-Fitted J/K Matrices <==

    J tasked:                  Yes
    K tasked:                  Yes
    wK tasked:                  No
    OpenMP threads:              4
    Integrals threads:           4
    Memory [MiB]:             5722
    Algorithm:                Core
    Integral Cache:           SAVE
    Schwarz Cutoff:          1E-12
    Fitting Condition:       1E-10

   => Auxiliary Basis Set <=

  Basis Set: (THIS_BASIS AUX)
    Blend: DEF2-UNIVERSAL-JKFIT
    Number of shells: 109
    Number of basis functions: 415
    Number of Cartesian functions: 544
    Spherical Harmonics?: true
    Max angular momentum: 5


  ==> E10 Electostatics <== 

    Elst10,r                         -3.35617690 [mEh]

  ==> E10 Exchange <== 

    Exch10(S^2)                       0.35629232 [mEh]
    Exch10                            0.35646561 [mEh]

  ==> E20 Induction <== 

   => Uncoupled Induction <= 

    Ind20,u (A<-B)                   -0.16952660 [mEh]
    Ind20,u (A->B)                   -0.13728628 [mEh]
    Ind20,u                          -0.30681288 [mEh]
    Exch-Ind20,u (A<-B)               0.00674959 [mEh]
    Exch-Ind20,u (A->B)               0.04739216 [mEh]
    Exch-Ind20,u                      0.05414175 [mEh]
    Exch-Ind20,u (A<-B) (S^inf)       0.00675028 [mEh]
    Exch-Ind20,u (A->B) (S^inf)       0.04745706 [mEh]
    Exch-Ind20,u (S^inf)              0.05420734 [mEh]

   => Coupled Induction <= 

   ---------------------------------------------------
              SAPT Coupled Induction Solver           
   ---------------------------------------------------
    Maxiter             =          20
    Convergence         =   1.000E-06
   ---------------------------------------------------
     Iter       (A<-B)           (B->A)      Time [s]
   ---------------------------------------------------
    Guess    3.910453e-01     1.891206e-01          0
        1    1.584152e-01     9.822669e-02          0
        2    6.873801e-02     2.355182e-02          0
        3    1.616276e-02     6.305637e-03          0
        4    1.933161e-03     1.067384e-03          0
        5    5.669979e-04     1.833520e-04          0
        6    7.597814e-05     3.895942e-05          0
        7    8.115445e-06     7.877473e-06          0
        8    1.042382e-06     1.117948e-06          0
        9    1.230059e-07*    8.113652e-08*         1
   ---------------------------------------------------

    Ind20,r (A<-B)                   -0.19013525 [mEh]
    Ind20,r (A->B)                   -0.17704227 [mEh]
    Ind20,r                          -0.36717751 [mEh]
    Exch-Ind20,r (A<-B)               0.00631795 [mEh]
    Exch-Ind20,r (A->B)               0.06096540 [mEh]
    Exch-Ind20,r                      0.06728335 [mEh]
    Exch-Ind20,r (A<-B) (S^inf)       0.00631550 [mEh]
    Exch-Ind20,r (A->B) (S^inf)       0.06105109 [mEh]
    Exch-Ind20,r (S^inf)              0.06736659 [mEh]

   Partial SAPT(HF) Results, to compute Delta HF (dHF)
  ---------------------------------------------------------------------------------------------------------
    Electrostatics                   -3.35617690 [mEh]     -2.10603280 [kcal/mol]     -8.81164124 [kJ/mol]
      Elst10,r                       -3.35617690 [mEh]     -2.10603280 [kcal/mol]     -8.81164124 [kJ/mol]

    Exchange                          0.35646561 [mEh]      0.22368555 [kcal/mol]      0.93590033 [kJ/mol]
      Exch10                          0.35646561 [mEh]      0.22368555 [kcal/mol]      0.93590033 [kJ/mol]
      Exch10(S^2)                     0.35629232 [mEh]      0.22357681 [kcal/mol]      0.93544536 [kJ/mol]

    Induction (no dHF)               -0.29989416 [mEh]     -0.18818643 [kcal/mol]     -0.78737201 [kJ/mol]
      Ind20,r                        -0.36717751 [mEh]     -0.23040737 [kcal/mol]     -0.96402443 [kJ/mol]
      Exch-Ind20,r                    0.06728335 [mEh]      0.04222094 [kcal/mol]      0.17665242 [kJ/mol]
      Induction (A<-B) (no dHF)      -0.18381729 [mEh]     -0.11534709 [kcal/mol]     -0.48261224 [kJ/mol]
      Induction (A->B) (no dHF)      -0.11607687 [mEh]     -0.07283933 [kcal/mol]     -0.30475977 [kJ/mol]

    Subtotal SAPT(HF)                -3.29960545 [mEh]     -2.07053368 [kcal/mol]     -8.66311292 [kJ/mol]
    Total HF                         -3.39801893 [mEh]     -2.13228907 [kcal/mol]     -8.92149747 [kJ/mol]
    Delta HF                         -0.09841348 [mEh]     -0.06175539 [kcal/mol]     -0.25838455 [kJ/mol]
  ---------------------------------------------------------------------------------------------------------
   Partial SAPT(HF) Results, alternate SAPT0-like display
  ---------------------------------------------------------------------------------------------------------
    Induction                        -0.39830764 [mEh]     -0.24994182 [kcal/mol]     -1.04575656 [kJ/mol]
      Ind20,r                        -0.36717751 [mEh]     -0.23040737 [kcal/mol]     -0.96402443 [kJ/mol]
      Exch-Ind20,r                    0.06728335 [mEh]      0.04222094 [kcal/mol]      0.17665242 [kJ/mol]
      delta HF,r (2)                 -0.09841348 [mEh]     -0.06175539 [kcal/mol]     -0.25838455 [kJ/mol]
      Induction (A<-B)               -0.24413890 [mEh]     -0.15319948 [kcal/mol]     -0.64098661 [kJ/mol]
      Induction (A->B)               -0.15416873 [mEh]     -0.09674234 [kcal/mol]     -0.40476995 [kJ/mol]
  ---------------------------------------------------------------------------------------------------------
   => Libint2 <=

    Primary   basis highest AM E, G, H:  6, 6, 3
    Auxiliary basis highest AM E, G, H:  7, 7, 4
    Onebody   basis highest AM E, G, H:  -, -, -
    Solid Harmonics ordering:            Gaussian

*** tstart() called on cmpsrv002
*** at Thu Sep 19 14:22:51 2024

   => Loading Basis Set <=

    Name: THIS_BASIS
    Role: ORBITAL
    Keyword: BASIS
    atoms 1, 4-6 entry H          line    15 file /home/vance/anaconda3/envs/p4env/share/psi4/basis/def2-qzvp.gbs 
    atoms 2      entry BR         line  2253 file /home/vance/anaconda3/envs/p4env/share/psi4/basis/def2-qzvp.gbs 
    atoms 3      entry N          line   242 file /home/vance/anaconda3/envs/p4env/share/psi4/basis/def2-qzvp.gbs 


         ---------------------------------------------------------
                          SAPT(DFT): DFT Monomer A                 
         ---------------------------------------------------------
                                   SCF
               by Justin Turney, Rob Parrish, Andy Simmonett
                          and Daniel G. A. Smith
                              RKS Reference
                        4 Threads,   7629 MiB Core
         ---------------------------------------------------------

  ==> Geometry <==

    Molecular point group: c1
    Full point group: Cs

    Geometry (in Angstrom), charge = 0, multiplicity = 1:

       Center              X                  Y                   Z               Mass       
    ------------   -----------------  -----------------  -----------------  -----------------
         H            0.000021011247    -0.643393300001     0.000000000000     1.007825032230
         BR          -0.000008988753     0.870826699999     0.000000000000    78.918337600000
      Gh(N)           0.000041011247    -3.935623300001     0.000000000000    14.003074004430
      Gh(H)          -0.474338988753    -4.288093300001     0.821650000000     1.007825032230
      Gh(H)          -0.474338988753    -4.288093300001    -0.821650000000     1.007825032230
      Gh(H)           0.948791011247    -4.288093300001     0.000000000000     1.007825032230

  Running in c1 symmetry.

  Rotational constants: A =      6.19413  B =      0.05045  C =      0.05045 [cm^-1]
  Rotational constants: A = 185695.44925  B =   1512.58931  C =   1512.58922 [MHz]
  Nuclear repulsion =   12.231513498576831

  Charge       = 0
  Multiplicity = 1
  Electrons    = 36
  Nalpha       = 18
  Nbeta        = 18

  ==> Algorithm <==

  SCF Algorithm Type is DF.
  DIIS enabled.
  MOM disabled.
  Fractional occupation disabled.
  Guess Type is SAD.
  Energy threshold   = 1.00e-08
  Density threshold  = 1.00e-08
  Integral threshold = 1.00e-12

  ==> Primary Basis <==

  Basis Set: THIS_BASIS
    Blend: DEF2-QZVP
    Number of shells: 82
    Number of basis functions: 252
    Number of Cartesian functions: 303
    Spherical Harmonics?: true
    Max angular momentum: 4

  ==> DFT Potential <==

   => LibXC <=

    Version 6.2.2
    S. Lehtola, C. Steigemann, M. J.T. Oliveira, and M. A.L. Marques.,  SoftwareX 7, 15 (2018) (10.1016/j.softx.2017.11.002)

   => Composite Functional: PBE0 <= 

    PBE0 Hyb-GGA Exchange-Correlation Functional

    C. Adamo and V. Barone.,  J. Chem. Phys. 110, 6158 (1999) (10.1063/1.478522)
    M. Ernzerhof and G. E. Scuseria.,  J. Chem. Phys. 110, 5029 (1999) (10.1063/1.478401)

    Deriv               =              1
    GGA                 =           TRUE
    Meta                =          FALSE

    Exchange Hybrid     =           TRUE
    MP2 Hybrid          =          FALSE

   => Exchange Functionals <=

    0.7500   Perdew, Burke & Ernzerhof

   => Exact (HF) Exchange <=

    0.2500               HF 

   => Correlation Functionals <=

    1.0000   Perdew, Burke & Ernzerhof

   => LibXC Density Thresholds  <==

    XC_HYB_GGA_XC_PBEH:  1.00E-15 

   => Asymptotic Correction <=

    X Functional        =    XC_GGA_X_LB
    C Functional        =   XC_LDA_C_VWN
    Bulk Shift          =       0.106591
    GRAC Alpha          =       0.500000
    GRAC Beta           =      40.000000

   => Molecular Quadrature <=

    Radial Scheme          =       TREUTLER
    Pruning Scheme         =           NONE
    Nuclear Scheme         =       TREUTLER

    Blocking Scheme        =         OCTREE
    BS radius alpha        =              1
    Pruning alpha          =              1
    Radial Points          =             75
    Spherical Points       =            302
    Total Points           =         131035
    Total Blocks           =           1053
    Max Points             =            256
    Max Functions          =            233
    Weights Tolerance      =       1.00E-15

   => Loading Basis Set <=

    Name: (THIS_BASIS AUX)
    Role: JKFIT
    Keyword: DF_BASIS_SCF
    atoms 1, 4-6 entry H          line    18 file /home/vance/anaconda3/envs/p4env/share/psi4/basis/def2-universal-jkfit.gbs 
    atoms 2      entry BR         line  3124 file /home/vance/anaconda3/envs/p4env/share/psi4/basis/def2-universal-jkfit.gbs 
    atoms 3      entry N          line   258 file /home/vance/anaconda3/envs/p4env/share/psi4/basis/def2-universal-jkfit.gbs 

  ==> Integral Setup <==

  ==> DiskDFJK: Density-Fitted J/K Matrices <==

    J tasked:                  Yes
    K tasked:                  Yes
    wK tasked:                  No
    OpenMP threads:              4
    Integrals threads:           4
    Memory [MiB]:             5114
    Algorithm:                Core
    Integral Cache:           SAVE
    Schwarz Cutoff:          1E-12
    Fitting Condition:       1E-10

   => Auxiliary Basis Set <=

  Basis Set: (THIS_BASIS AUX)
    Blend: DEF2-UNIVERSAL-JKFIT
    Number of shells: 109
    Number of basis functions: 415
    Number of Cartesian functions: 544
    Spherical Harmonics?: true
    Max angular momentum: 5

  Cached 100.0% of DFT collocation blocks in 0.593 [GiB].

  Minimum eigenvalue in the overlap matrix is 1.6859253087E-04.
  Reciprocal condition number of the overlap matrix is 2.1170497710E-05.
    Using symmetric orthogonalization.

  ==> Pre-Iterations <==

  SCF Guess: Superposition of Atomic Densities via on-the-fly atomic UHF (no occupation information).

   -------------------------
    Irrep   Nso     Nmo    
   -------------------------
     A        252     252 
   -------------------------
    Total     252     252
   -------------------------

  ==> Iterations <==

                           Total Energy        Delta E     RMS |[F,P]|

   @DF-RKS iter SAD: -2572.87176277677827   -2.57287e+03   0.00000e+00 
   @DF-RKS iter   1: -2574.05671352225090   -1.18495e+00   8.57526e-03 DIIS/ADIIS
   @DF-RKS iter   2: -2573.97623314555904    8.04804e-02   8.99464e-03 DIIS/ADIIS
   @DF-RKS iter   3: -2574.50588070983349   -5.29648e-01   2.36648e-04 DIIS/ADIIS
   @DF-RKS iter   4: -2574.50664663972475   -7.65930e-04   1.98941e-04 DIIS/ADIIS
   @DF-RKS iter   5: -2574.50808279776356   -1.43616e-03   1.21199e-05 DIIS
   @DF-RKS iter   6: -2574.50808463689418   -1.83913e-06   2.09091e-06 DIIS
   @DF-RKS iter   7: -2574.50808489008341   -2.53189e-07   8.06828e-08 DIIS
   @DF-RKS iter   8: -2574.50808488276243    7.32098e-09   7.54180e-09 DIIS
  Energy and wave function converged.


  ==> Post-Iterations <==

   Electrons on quadrature grid:
      Ntotal   =   35.9999987681 ; deviation = -1.232e-06 

    Orbital Energies [Eh]
    ---------------------

    Doubly Occupied:                                                      

       1A   -483.380911     2A    -62.767724     3A    -56.542680  
       4A    -56.539067     5A    -56.539067     6A     -8.893357  
       7A     -6.703867     8A     -6.692749     9A     -6.692749  
      10A     -2.789586    11A     -2.786146    12A     -2.786146  
      13A     -2.777050    14A     -2.777050    15A     -0.911969  
      16A     -0.554554    17A     -0.427330    18A     -0.427330  

    Virtual:                                                              

      19A     -0.141520    20A     -0.016779    21A      0.030948  
      22A      0.061152    23A      0.065097    24A      0.065102  
      25A      0.090547    26A      0.090553    27A      0.146982  
      28A      0.156527    29A      0.156527    30A      0.216546  
      31A      0.216546    32A      0.236377    33A      0.236381  
      34A      0.247090    35A      0.306717    36A      0.372586  
      37A      0.445289    38A      0.445300    39A      0.509914  
      40A      0.525424    41A      0.525427    42A      0.585203  
      43A      0.585205    44A      0.728354    45A      0.773401  
      46A      0.817482    47A      0.854497    48A      0.856105  
      49A      0.856152    50A      0.865784    51A      0.865785  
      52A      0.873897    53A      0.891064    54A      0.891065  
      55A      0.938473    56A      0.941682    57A      0.941682  
      58A      0.979003    59A      0.979164    60A      0.979188  
      61A      1.034923    62A      1.034981    63A      1.051405  
      64A      1.051420    65A      1.215731    66A      1.284922  
      67A      1.284938    68A      1.300904    69A      1.324949  
      70A      1.324949    71A      1.339635    72A      1.352418  
      73A      1.352418    74A      1.367638    75A      1.367651  
      76A      1.510742    77A      1.838248    78A      1.838266  
      79A      1.905922    80A      1.937031    81A      1.981269  
      82A      1.981279    83A      2.048969    84A      2.049026  
      85A      2.162676    86A      2.290221    87A      2.373758  
      88A      2.373818    89A      2.379659    90A      2.379660  
      91A      2.401604    92A      2.453920    93A      2.453934  
      94A      2.463009    95A      2.577348    96A      2.577348  
      97A      2.590543    98A      2.590580    99A      2.593836  
     100A      2.593836   101A      2.602770   102A      2.602770  
     103A      2.611299   104A      2.631983   105A      2.631983  
     106A      2.682290   107A      2.704418   108A      2.704430  
     109A      2.741647   110A      2.741676   111A      2.757474  
     112A      2.757487   113A      2.788686   114A      2.792606  
     115A      2.792609   116A      2.869612   117A      2.869646  
     118A      3.004936   119A      3.073834   120A      3.073861  
     121A      3.127772   122A      3.185655   123A      3.217660  
     124A      3.356972   125A      3.356972   126A      3.357837  
     127A      3.363027   128A      3.372987   129A      3.372988  
     130A      3.642575   131A      3.642657   132A      3.766800  
     133A      3.804713   134A      3.804714   135A      3.845946  
     136A      3.845962   137A      4.009117   138A      4.082053  
     139A      4.317642   140A      4.336560   141A      4.471641  
     142A      4.471657   143A      4.832453   144A      4.832453  
     145A      4.871425   146A      4.887178   147A      4.887178  
     148A      4.977464   149A      4.977472   150A      5.314419  
     151A      5.650541   152A      5.650541   153A      5.917118  
     154A      5.917133   155A      5.934040   156A      5.934060  
     157A      6.122051   158A      6.359273   159A      6.359287  
     160A      6.388627   161A      6.388632   162A      6.459738  
     163A      6.468679   164A      6.468679   165A      6.483916  
     166A      6.589850   167A      6.682348   168A      6.682368  
     169A      7.050217   170A      7.050227   171A      7.257060  
     172A      7.303938   173A      7.303946   174A      7.330494  
     175A      7.533812   176A      7.533812   177A      7.577921  
     178A      7.697121   179A      7.697124   180A      7.764190  
     181A      7.764528   182A      7.832801   183A      7.838195  
     184A      8.048108   185A      8.058110   186A      8.058122  
     187A      8.143045   188A      8.264577   189A      8.280658  
     190A      8.280658   191A      8.366284   192A      8.366292  
     193A      8.493200   194A      8.493206   195A      8.599717  
     196A      8.667034   197A      8.667075   198A      8.684964  
     199A      8.719616   200A      8.804393   201A      8.841168  
     202A      8.841171   203A      8.902790   204A      8.902792  
     205A      8.916315   206A      9.012887   207A      9.137372  
     208A      9.234985   209A      9.234996   210A      9.402794  
     211A      9.408168   212A      9.610735   213A      9.610737  
     214A      9.835708   215A      9.995371   216A      9.995381  
     217A     10.092305   218A     10.092325   219A     10.162534  
     220A     10.596786   221A     10.596801   222A     10.925701  
     223A     10.925705   224A     11.125674   225A     11.216036  
     226A     11.673366   227A     11.673381   228A     12.274119  
     229A     12.274167   230A     12.675303   231A     13.491516  
     232A     13.491516   233A     13.612403   234A     13.773256  
     235A     13.773278   236A     13.781080   237A     14.029482  
     238A     14.200605   239A     14.200635   240A     14.448715  
     241A     14.486096   242A     14.486119   243A     15.877206  
     244A     18.098656   245A     18.098672   246A     25.415391  
     247A     28.900435   248A     70.166939   249A     94.633891  
     250A    318.500827   251A    321.568269   252A   1818.953787  

    Final Occupation by Irrep:
              A 
    DOCC [    18 ]
    NA   [    18 ]
    NB   [    18 ]

  @DF-RKS Final Energy: -2574.50808488276243

   => Energetics <=

    Nuclear Repulsion Energy =             12.2315134985768310
    One-Electron Energy =               -3607.2533286918055637
    Two-Electron Energy =                1089.3953803535396219
    DFT Exchange-Correlation Energy =     -68.8816500430736767
    Empirical Dispersion Energy =           0.0000000000000000
    VV10 Nonlocal Energy =                  0.0000000000000000
    Total Energy =                      -2574.5080848827624322

Computation Completed


Properties will be evaluated at   0.000000,   0.000000,   0.000000 [a0]

Properties computed using the SCF density matrix


 Multipole Moments:

 ------------------------------------------------------------------------------------
     Multipole            Electronic (a.u.)      Nuclear  (a.u.)        Total (a.u.)
 ------------------------------------------------------------------------------------

 L = 1.  Multiply by 2.5417464519 to convert [e a0] to [Debye]
 Dipole X            :          0.0005625           -0.0005548            0.0000077
 Dipole Y            :        -56.7653257           56.3810017           -0.3843240
 Dipole Z            :         -0.0000000            0.0000000           -0.0000000
 Magnitude           :                                                    0.3843240

 ------------------------------------------------------------------------------------

*** tstop() called on cmpsrv002 at Thu Sep 19 14:24:53 2024
Module time:
	user time   =      19.05 seconds =       0.32 minutes
	system time =       1.21 seconds =       0.02 minutes
	total time  =        122 seconds =       2.03 minutes
Total time:
	user time   =      61.21 seconds =       1.02 minutes
	system time =       4.53 seconds =       0.08 minutes
	total time  =        524 seconds =       8.73 minutes
   => Libint2 <=

    Primary   basis highest AM E, G, H:  6, 6, 3
    Auxiliary basis highest AM E, G, H:  7, 7, 4
    Onebody   basis highest AM E, G, H:  -, -, -
    Solid Harmonics ordering:            Gaussian

*** tstart() called on cmpsrv002
*** at Thu Sep 19 14:24:53 2024

   => Loading Basis Set <=

    Name: THIS_BASIS
    Role: ORBITAL
    Keyword: BASIS
    atoms 1, 4-6 entry H          line    15 file /home/vance/anaconda3/envs/p4env/share/psi4/basis/def2-qzvp.gbs 
    atoms 2      entry BR         line  2253 file /home/vance/anaconda3/envs/p4env/share/psi4/basis/def2-qzvp.gbs 
    atoms 3      entry N          line   242 file /home/vance/anaconda3/envs/p4env/share/psi4/basis/def2-qzvp.gbs 


         ---------------------------------------------------------
                          SAPT(DFT): DFT Monomer B                 
         ---------------------------------------------------------
                                   SCF
               by Justin Turney, Rob Parrish, Andy Simmonett
                          and Daniel G. A. Smith
                              RKS Reference
                        4 Threads,   7629 MiB Core
         ---------------------------------------------------------

  ==> Geometry <==

    Molecular point group: c1
    Full point group: Cs

    Geometry (in Angstrom), charge = 0, multiplicity = 1:

       Center              X                  Y                   Z               Mass       
    ------------   -----------------  -----------------  -----------------  -----------------
      Gh(H)           0.000021011247    -0.643393300001     0.000000000000     1.007825032230
      Gh(BR)         -0.000008988753     0.870826699999     0.000000000000    78.918337600000
         N            0.000041011247    -3.935623300001     0.000000000000    14.003074004430
         H           -0.474338988753    -4.288093300001     0.821650000000     1.007825032230
         H           -0.474338988753    -4.288093300001    -0.821650000000     1.007825032230
         H            0.948791011247    -4.288093300001     0.000000000000     1.007825032230

  Running in c1 symmetry.

  Rotational constants: A =      6.19413  B =      0.05045  C =      0.05045 [cm^-1]
  Rotational constants: A = 185695.44925  B =   1512.58931  C =   1512.58922 [MHz]
  Nuclear repulsion =   11.945783476959878

  Charge       = 0
  Multiplicity = 1
  Electrons    = 10
  Nalpha       = 5
  Nbeta        = 5

  ==> Algorithm <==

  SCF Algorithm Type is DF.
  DIIS enabled.
  MOM disabled.
  Fractional occupation disabled.
  Guess Type is SAD.
  Energy threshold   = 1.00e-08
  Density threshold  = 1.00e-08
  Integral threshold = 1.00e-12

  ==> Primary Basis <==

  Basis Set: THIS_BASIS
    Blend: DEF2-QZVP
    Number of shells: 82
    Number of basis functions: 252
    Number of Cartesian functions: 303
    Spherical Harmonics?: true
    Max angular momentum: 4

  ==> DFT Potential <==

   => LibXC <=

    Version 6.2.2
    S. Lehtola, C. Steigemann, M. J.T. Oliveira, and M. A.L. Marques.,  SoftwareX 7, 15 (2018) (10.1016/j.softx.2017.11.002)

   => Composite Functional: PBE0 <= 

    PBE0 Hyb-GGA Exchange-Correlation Functional

    C. Adamo and V. Barone.,  J. Chem. Phys. 110, 6158 (1999) (10.1063/1.478522)
    M. Ernzerhof and G. E. Scuseria.,  J. Chem. Phys. 110, 5029 (1999) (10.1063/1.478401)

    Deriv               =              1
    GGA                 =           TRUE
    Meta                =          FALSE

    Exchange Hybrid     =           TRUE
    MP2 Hybrid          =          FALSE

   => Exchange Functionals <=

    0.7500   Perdew, Burke & Ernzerhof

   => Exact (HF) Exchange <=

    0.2500               HF 

   => Correlation Functionals <=

    1.0000   Perdew, Burke & Ernzerhof

   => LibXC Density Thresholds  <==

    XC_HYB_GGA_XC_PBEH:  1.00E-15 

   => Asymptotic Correction <=

    X Functional        =    XC_GGA_X_LB
    C Functional        =   XC_LDA_C_VWN
    Bulk Shift          =       0.113162
    GRAC Alpha          =       0.500000
    GRAC Beta           =      40.000000

   => Molecular Quadrature <=

    Radial Scheme          =       TREUTLER
    Pruning Scheme         =           NONE
    Nuclear Scheme         =       TREUTLER

    Blocking Scheme        =         OCTREE
    BS radius alpha        =              1
    Pruning alpha          =              1
    Radial Points          =             75
    Spherical Points       =            302
    Total Points           =         131035
    Total Blocks           =           1053
    Max Points             =            256
    Max Functions          =            233
    Weights Tolerance      =       1.00E-15

   => Loading Basis Set <=

    Name: (THIS_BASIS AUX)
    Role: JKFIT
    Keyword: DF_BASIS_SCF
    atoms 1, 4-6 entry H          line    18 file /home/vance/anaconda3/envs/p4env/share/psi4/basis/def2-universal-jkfit.gbs 
    atoms 2      entry BR         line  3124 file /home/vance/anaconda3/envs/p4env/share/psi4/basis/def2-universal-jkfit.gbs 
    atoms 3      entry N          line   258 file /home/vance/anaconda3/envs/p4env/share/psi4/basis/def2-universal-jkfit.gbs 

  ==> Integral Setup <==

  ==> DiskDFJK: Density-Fitted J/K Matrices <==

    J tasked:                  Yes
    K tasked:                  Yes
    wK tasked:                  No
    OpenMP threads:              4
    Integrals threads:           4
    Memory [MiB]:             5114
    Algorithm:                Core
    Integral Cache:           SAVE
    Schwarz Cutoff:          1E-12
    Fitting Condition:       1E-10

   => Auxiliary Basis Set <=

  Basis Set: (THIS_BASIS AUX)
    Blend: DEF2-UNIVERSAL-JKFIT
    Number of shells: 109
    Number of basis functions: 415
    Number of Cartesian functions: 544
    Spherical Harmonics?: true
    Max angular momentum: 5

  Cached 100.0% of DFT collocation blocks in 0.593 [GiB].

  Minimum eigenvalue in the overlap matrix is 1.6859253087E-04.
  Reciprocal condition number of the overlap matrix is 2.1170497710E-05.
    Using symmetric orthogonalization.

  ==> Pre-Iterations <==

  SCF Guess: Superposition of Atomic Densities via on-the-fly atomic UHF (no occupation information).

   -------------------------
    Irrep   Nso     Nmo    
   -------------------------
     A        252     252 
   -------------------------
    Total     252     252
   -------------------------

  ==> Iterations <==

                           Total Energy        Delta E     RMS |[F,P]|

   @DF-RKS iter SAD:   -56.06908456282572   -5.60691e+01   0.00000e+00 
   @DF-RKS iter   1:   -56.27998169368756   -2.10897e-01   3.08549e-03 DIIS/ADIIS
   @DF-RKS iter   2:   -56.02837351483800    2.51608e-01   4.01983e-03 DIIS/ADIIS
   @DF-RKS iter   3:   -56.51869009047285   -4.90317e-01   2.09032e-04 DIIS/ADIIS
   @DF-RKS iter   4:   -56.52007178144270   -1.38169e-03   1.82150e-05 DIIS
   @DF-RKS iter   5:   -56.52007871661292   -6.93517e-06   4.82566e-06 DIIS
   @DF-RKS iter   6:   -56.52007883637309   -1.19760e-07   1.87861e-07 DIIS
   @DF-RKS iter   7:   -56.52007880985087    2.65222e-08   2.45409e-08 DIIS
   @DF-RKS iter   8:   -56.52007880278989    7.06098e-09   2.64156e-09 DIIS
  Energy and wave function converged.


  ==> Post-Iterations <==

   Electrons on quadrature grid:
      Ntotal   =    9.9999990457 ; deviation = -9.543e-07 

    Orbital Energies [Eh]
    ---------------------

    Doubly Occupied:                                                      

       1A    -14.471281     2A     -0.986925     3A     -0.590710  
       4A     -0.590708     5A     -0.391263  

    Virtual:                                                              

       6A     -0.084540     7A     -0.015274     8A     -0.015273  
       9A      0.002175    10A      0.061789    11A      0.091061  
      12A      0.091063    13A      0.116235    14A      0.116237  
      15A      0.134105    16A      0.195922    17A      0.271691  
      18A      0.271693    19A      0.273151    20A      0.309437  
      21A      0.309438    22A      0.346605    23A      0.416171  
      24A      0.558732    25A      0.558733    26A      0.587629  
      27A      0.593378    28A      0.593379    29A      0.614599  
      30A      0.647740    31A      0.651268    32A      0.651268  
      33A      0.665229    34A      0.665289    35A      0.707404  
      36A      0.755105    37A      0.755108    38A      0.806327  
      39A      0.821108    40A      0.821109    41A      0.852153  
      42A      0.870027    43A      0.870028    44A      0.968777  
      45A      1.001426    46A      1.001428    47A      1.061609  
      48A      1.094849    49A      1.094851    50A      1.141666  
      51A      1.220353    52A      1.352670    53A      1.352765  
      54A      1.373648    55A      1.373648    56A      1.423826  
      57A      1.506727    58A      1.506728    59A      1.570804  
      60A      1.570805    61A      1.774693    62A      1.779613  
      63A      1.779613    64A      1.856450    65A      1.917846  
      66A      1.961402    67A      1.961407    68A      2.013284  
      69A      2.040805    70A      2.144581    71A      2.144582  
      72A      2.178693    73A      2.178695    74A      2.201335  
      75A      2.235875    76A      2.235884    77A      2.289713  
      78A      2.292115    79A      2.292118    80A      2.295249  
      81A      2.295252    82A      2.306458    83A      2.306458  
      84A      2.384637    85A      2.384667    86A      2.427233  
      87A      2.432151    88A      2.465679    89A      2.465682  
      90A      2.513973    91A      2.656847    92A      2.677376  
      93A      2.677376    94A      2.729681    95A      2.729682  
      96A      2.819593    97A      2.819603    98A      2.893090  
      99A      2.932526   100A      2.932526   101A      2.985799  
     102A      3.051664   103A      3.122864   104A      3.122865  
     105A      3.201977   106A      3.412474   107A      3.497140  
     108A      3.497140   109A      3.510593   110A      3.510596  
     111A      3.530774   112A      3.530784   113A      3.604787  
     114A      3.667322   115A      3.667336   116A      3.790584  
     117A      3.925410   118A      3.925412   119A      4.102359  
     120A      4.167467   121A      4.167478   122A      4.298887  
     123A      4.300425   124A      4.300425   125A      4.424619  
     126A      4.424654   127A      4.426941   128A      4.426941  
     129A      4.459520   130A      4.459520   131A      4.535890  
     132A      4.540419   133A      4.540419   134A      4.571808  
     135A      4.921497   136A      4.921510   137A      5.177833  
     138A      5.198412   139A      5.715708   140A      5.715722  
     141A      5.827982   142A      5.827987   143A      5.828941  
     144A      5.892553   145A      5.898314   146A      5.898326  
     147A      6.233410   148A      6.233411   149A      6.286697  
     150A      6.393470   151A      6.456126   152A      6.456140  
     153A      6.549821   154A      6.549830   155A      6.620730  
     156A      6.620744   157A      6.739301   158A      6.739301  
     159A      6.821759   160A      6.829005   161A      6.829020  
     162A      6.887354   163A      6.887362   164A      6.891055  
     165A      7.024658   166A      7.094314   167A      7.121450  
     168A      7.121458   169A      7.209641   170A      7.209654  
     171A      7.331927   172A      7.390391   173A      7.458550  
     174A      7.486826   175A      7.486826   176A      7.546714  
     177A      7.546724   178A      7.683451   179A      7.683471  
     180A      7.804169   181A      7.804184   182A      7.819125  
     183A      7.837810   184A      7.887275   185A      7.902179  
     186A      7.902180   187A      8.050469   188A      8.157686  
     189A      8.161007   190A      8.161011   191A      8.294595  
     192A      8.381776   193A      8.381793   194A      8.399647  
     195A      8.451140   196A      8.506547   197A      8.506557  
     198A      8.678298   199A      8.678404   200A      8.817254  
     201A      8.817255   202A      8.891024   203A      9.001100  
     204A      9.001108   205A      9.222480   206A      9.222480  
     207A      9.266615   208A      9.266624   209A      9.405631  
     210A      9.554912   211A      9.574248   212A      9.574248  
     213A      9.773214   214A      9.950552   215A      9.962678  
     216A      9.962682   217A     10.692014   218A     10.876380  
     219A     10.876380   220A     10.991705   221A     11.097044  
     222A     11.097066   223A     11.384337   224A     11.483437  
     225A     11.548155   226A     11.548168   227A     11.723862  
     228A     11.723902   229A     11.894843   230A     12.752817  
     231A     14.228861   232A     14.228864   233A     15.063233  
     234A     28.614317   235A     28.614317   236A     28.810229  
     237A     29.082550   238A     35.179343   239A     35.179346  
     240A     35.328751   241A     35.328752   242A     35.916118  
     243A     38.205166   244A     64.399234   245A    141.322236  
     246A    164.919051   247A    164.919051   248A    165.214228  
     249A    197.667902   250A    324.961734   251A    874.201843  
     252A   3947.983025  

    Final Occupation by Irrep:
              A 
    DOCC [     5 ]
    NA   [     5 ]
    NB   [     5 ]

  @DF-RKS Final Energy:   -56.52007880278989

   => Energetics <=

    Nuclear Repulsion Energy =             11.9457834769598783
    One-Electron Energy =                 -99.6889467421053013
    Two-Electron Energy =                  37.2663850314141030
    DFT Exchange-Correlation Energy =      -6.0433005690585668
    Empirical Dispersion Energy =           0.0000000000000000
    VV10 Nonlocal Energy =                  0.0000000000000000
    Total Energy =                        -56.5200788027898895

Computation Completed


Properties will be evaluated at   0.000000,   0.000000,   0.000000 [a0]

Properties computed using the SCF density matrix


 Multipole Moments:

 ------------------------------------------------------------------------------------
     Multipole            Electronic (a.u.)      Nuclear  (a.u.)        Total (a.u.)
 ------------------------------------------------------------------------------------

 L = 1.  Multiply by 2.5417464519 to convert [e a0] to [Debye]
 Dipole X            :         -0.0007570            0.0007561           -0.0000009
 Dipole Y            :         75.7908178          -76.3707170           -0.5798992
 Dipole Z            :         -0.0000000            0.0000000           -0.0000000
 Magnitude           :                                                    0.5798992

 ------------------------------------------------------------------------------------

*** tstop() called on cmpsrv002 at Thu Sep 19 14:26:46 2024
Module time:
	user time   =      15.47 seconds =       0.26 minutes
	system time =       0.62 seconds =       0.01 minutes
	total time  =        113 seconds =       1.88 minutes
Total time:
	user time   =      76.69 seconds =       1.28 minutes
	system time =       5.15 seconds =       0.09 minutes
	total time  =        637 seconds =      10.62 minutes

         ---------------------------------------------------------
               SAPT(DFT): Intermolecular Interaction Segment       

                   by Daniel G. A. Smith and Rob Parrish           
         ---------------------------------------------------------

  ==> Algorithm <==

   SAPT DFT Functional             PBE0
   Monomer A GRAC Shift        0.106591
   Monomer B GRAC Shift        0.113162
   Delta HF                        True
   JK Algorithm                      DF

  ==> Preparing SAPT Data Cache <== 

  ==> DiskDFJK: Density-Fitted J/K Matrices <==

    J tasked:                  Yes
    K tasked:                  Yes
    wK tasked:                  No
    OpenMP threads:              4
    Integrals threads:           4
    Memory [MiB]:             5114
    Algorithm:                Core
    Integral Cache:           SAVE
    Schwarz Cutoff:          1E-12
    Fitting Condition:       1E-10

   => Auxiliary Basis Set <=

  Basis Set: (THIS_BASIS AUX)
    Blend: DEF2-UNIVERSAL-JKFIT
    Number of shells: 109
    Number of basis functions: 415
    Number of Cartesian functions: 544
    Spherical Harmonics?: true
    Max angular momentum: 5


  ==> E10 Electostatics <== 

    Elst10,r                         -3.16123301 [mEh]

  ==> E10 Exchange <== 

    Exch10(S^2)                       0.40015726 [mEh]
    Exch10                            0.40037775 [mEh]

  ==> E20 Induction <== 

   => Uncoupled Induction <= 

    Ind20,u (A<-B)                   -0.25048360 [mEh]
    Ind20,u (A->B)                   -0.19618424 [mEh]
    Ind20,u                          -0.44666783 [mEh]
    Exch-Ind20,u (A<-B)               0.00669210 [mEh]
    Exch-Ind20,u (A->B)               0.07209854 [mEh]
    Exch-Ind20,u                      0.07879064 [mEh]
    Exch-Ind20,u (A<-B) (S^inf)       0.00669004 [mEh]
    Exch-Ind20,u (A->B) (S^inf)       0.07220691 [mEh]
    Exch-Ind20,u (S^inf)              0.07889695 [mEh]

   => Coupled Induction <= 

   ---------------------------------------------------
              SAPT Coupled Induction Solver           
   ---------------------------------------------------
    Maxiter             =          20
    Convergence         =   1.000E-06
   ---------------------------------------------------
     Iter       (A<-B)           (B->A)      Time [s]
   ---------------------------------------------------
    Guess    8.782032e-01     2.121099e-01          0
        1    1.450275e-01     6.958376e-02          1
        2    4.831699e-02     2.233446e-02          2
        3    5.969134e-03     1.890755e-03          2
        4    1.608450e-03     1.727674e-04          3
        5    9.917560e-05     8.657553e-06          3
        6    1.334358e-05     1.241370e-06          4
        7    7.314571e-07*    1.379352e-07*         5
   ---------------------------------------------------

    Ind20,r (A<-B)                   -0.17914863 [mEh]
    Ind20,r (A->B)                   -0.20229485 [mEh]
    Ind20,r                          -0.38144348 [mEh]
    Exch-Ind20,r (A<-B)               0.00698701 [mEh]
    Exch-Ind20,r (A->B)               0.07895732 [mEh]
    Exch-Ind20,r                      0.08594433 [mEh]
    Exch-Ind20,r (A<-B) (S^inf)       0.00698441 [mEh]
    Exch-Ind20,r (A->B) (S^inf)       0.07907740 [mEh]
    Exch-Ind20,r (S^inf)              0.08606181 [mEh]
   => Loading Basis Set <=

    Name: (THIS_BASIS AUX)
    Role: RIFIT
    Keyword: DF_BASIS_MP2
    atoms 1, 4-6 entry H          line    23 file /home/vance/anaconda3/envs/p4env/share/psi4/basis/def2-qzvp-ri.gbs 
    atoms 2      entry BR         line  2543 file /home/vance/anaconda3/envs/p4env/share/psi4/basis/def2-qzvp-ri.gbs 
    atoms 3      entry N          line   337 file /home/vance/anaconda3/envs/p4env/share/psi4/basis/def2-qzvp-ri.gbs 



  ==> E20 Dispersion (CHF FDDS) <== 

   Legendre Points:          10
   Lambda Shift:          0.300
   Fxc Kernal:             ALDA
   (P|Fxc|Q) Thresh:  1.000e-06
  DFHelper Memory: AOs need 0.385 GiB; user supplied 5.960 GiB. 
  Using in-core AOs.

  ==> DFHelper <==
    NBF:                             252
    NAux:                            961
    Schwarz Cutoff:                1E-12
    Mask sparsity (%):                21
    DFH Avail. Memory [GiB]:       5.960
    OpenMP threads:                    4
    Algorithm:                    DIRECT
    AO Core:                        True
    MO Core:                       False
    Hold Metric:                   False
    Metric Power:                  0.000
    Fitting Condition:             1E-12
    Q Shell Max:                      13


  DFHelper Memory: AOs need 0.482 GiB; user supplied 5.960 GiB. 
  Using in-core AOs.


   => Time Integration <= 

       Omega       Weight       Disp20,u         Disp20   time [s]
   2.269e+01    6.667e-02      1.789e-06      1.562e-06          1
   4.147e+00    1.495e-01      6.199e-05      4.983e-05          2
   1.572e+00    2.191e-01      3.633e-04      2.633e-04          4
   7.589e-01    2.693e-01      9.396e-04      6.228e-04          5
   4.049e-01    2.955e-01      1.344e-03      8.432e-04          6
   2.223e-01    2.955e-01      1.267e-03      7.184e-04          8
   1.186e-01    2.693e-01      9.309e-04      4.960e-04         10
   5.727e-02    2.191e-01      5.975e-04      3.101e-04         12
   2.170e-02    1.495e-01      3.377e-04      1.739e-04         16
   3.966e-03    6.667e-02      1.350e-04      6.943e-05         20

    Disp20,u                         -0.95152042 [mEh]
    Disp20                           -0.56478301 [mEh]

  ==> E20 Dispersion (MP2) <== 


    Disp20 (MP2)                     -0.95054378 [mEh]
    Exch-Disp20,u                     0.05424039 [mEh]
    Scaling Scheme                    FIXED
    Scaling Factor                    0.770
    Est. Exch-Disp20,r                0.04176510 [mEh]

   SAPT(DFT) Results
  ---------------------------------------------------------------------------------------------------------
    Electrostatics                   -3.16123301 [mEh]     -1.98370366 [kcal/mol]     -8.29981613 [kJ/mol]
      Elst1,r                        -3.16123301 [mEh]     -1.98370366 [kcal/mol]     -8.29981613 [kJ/mol]

    Exchange                          0.40037775 [mEh]      0.25124083 [kcal/mol]      1.05119164 [kJ/mol]
      Exch1                           0.40037775 [mEh]      0.25124083 [kcal/mol]      1.05119164 [kJ/mol]
      Exch1(S^2)                      0.40015726 [mEh]      0.25110247 [kcal/mol]      1.05061275 [kJ/mol]

    Induction                        -0.39391263 [mEh]     -0.24718391 [kcal/mol]     -1.03421746 [kJ/mol]
      Ind2,r                         -0.38144348 [mEh]     -0.23935940 [kcal/mol]     -1.00147972 [kJ/mol]
      Exch-Ind2,r                     0.08594433 [mEh]      0.05393088 [kcal/mol]      0.22564681 [kJ/mol]
      Induction (A<-B)               -0.17216162 [mEh]     -0.10803305 [kcal/mol]     -0.45201028 [kJ/mol]
      Induction (A->B)               -0.12333753 [mEh]     -0.07739547 [kcal/mol]     -0.32382263 [kJ/mol]
      delta HF,r (2)                 -0.09841348 [mEh]     -0.06175539 [kcal/mol]     -0.25838455 [kJ/mol]

    Dispersion                       -0.52301791 [mEh]     -0.32819869 [kcal/mol]     -1.37318333 [kJ/mol]
      Disp2,r                        -0.56478301 [mEh]     -0.35440669 [kcal/mol]     -1.48283758 [kJ/mol]
      Disp2,u                        -0.95054378 [mEh]     -0.59647523 [kcal/mol]     -2.49565235 [kJ/mol]
      Est. Exch-Disp2,r               0.04176510 [mEh]      0.02620799 [kcal/mol]      0.10965425 [kJ/mol]
      Exch-Disp2,u                    0.05424039 [mEh]      0.03403636 [kcal/mol]      0.14240811 [kJ/mol]

    Total SAPT(DFT)                  -3.67778580 [mEh]     -2.30784543 [kcal/mol]     -9.65602528 [kJ/mol]
  ---------------------------------------------------------------------------------------------------------

*** tstop() called on cmpsrv002 at Thu Sep 19 15:22:23 2024
Module time:
	user time   =     278.02 seconds =       4.63 minutes
	system time =      32.77 seconds =       0.55 minutes
	total time  =       3451 seconds =      57.52 minutes
Total time:
	user time   =     337.01 seconds =       5.62 minutes
	system time =      37.27 seconds =       0.62 minutes
	total time  =       3980 seconds =      66.33 minutes

    Psi4 stopped on: Thursday, 19 September 2024 03:22PM
    Psi4 wall time for execution: 1:06:20.48

*** Psi4 exiting successfully. Buy a developer a beer!
