
    -----------------------------------------------------------------------
          Psi4: An Open-Source Ab Initio Electronic Structure Package
                               Psi4 1.9.1 release

                         Git: Rev {} zzzzzzz 


    D. G. A. Smith, L. A. Burns, A. C. Simmonett, R. M. Parrish,
    M. C. Schieber, R. Galvelis, P. Kraus, H. Kruse, R. Di Remigio,
    A. Alenaizan, A. M. James, S. Lehtola, J. P. Misiewicz, M. Scheurer,
    R. A. Shaw, J. B. Schriber, Y. Xie, Z. L. Glick, D. A. Sirianni,
    J. S. O'Brien, J. M. Waldrop, A. Kumar, E. G. Hohenstein,
    B. P. Pritchard, B. R. Brooks, H. F. Schaefer III, A. Yu. Sokolov,
    K. Patkowski, A. E. DePrince III, U. Bozkaya, R. A. King,
    F. A. Evangelista, J. M. Turney, T. D. Crawford, C. D. Sherrill,
    J. Chem. Phys. 152(18) 184108 (2020). https://doi.org/10.1063/5.0006002

                            Additional Code Authors
    E. T. Seidl, C. L. Janssen, E. F. Valeev, M. L. Leininger,
    J. F. Gonthier, R. M. Richard, H. R. McAlexander, M. Saitow, X. Wang,
    P. Verma, M. H. Lechner, A. Jiang, S. Behnle, A. G. Heide,
    M. F. Herbst, and D. L. Poole

             Previous Authors, Complete List of Code Contributors,
                       and Citations for Specific Modules
    https://github.com/psi4/psi4/blob/master/codemeta.json
    https://github.com/psi4/psi4/graphs/contributors
    http://psicode.org/psi4manual/master/introduction.html#citing-psifour

    -----------------------------------------------------------------------


    Psi4 started on: Thursday, 19 September 2024 02:16PM

    Process ID: 605877
    Host:       cmpsrv002
    PSIDATADIR: /home/vance/anaconda3/envs/p4env/share/psi4
    Memory:     500.0 MiB
    Threads:    8
    
  ==> Input File <==

--------------------------------------------------------------------------
#charge=0 charge_a=0 charge_b=0 selection_a=1-2 selection_b=3-6 scaling=1.25 benchmark_Eint=-8.026 benchmark_unit=kcal/mol group=XH-N
set_num_threads(4)
memory 8 GB
basis this_basis {
    assign    def2-qzvp
}

molecule {
     0 1
    --
     0 1
     H        0.00002       -0.93248        0.00000
    Br       -0.00001        0.58174        0.00000
    --
     0 1
     N        0.00003       -2.99012        0.00000
     H       -0.47435       -3.34259        0.82165
     H       -0.47435       -3.34259       -0.82165
     H        0.94879       -3.34259        0.00000
}

set {
    sapt_dft_functional     PBE0
    scf_type                DF
    freeze_core             true
    sapt_dft_grac_shift_a    0.106591
    sapt_dft_grac_shift_b    0.113162
    sapt_dft_do_hybrid      true
    do_ind_exch_sinf        true
    do_disp_exch_sinf       true
}

nrg = energy('sapt(DFT)')
--------------------------------------------------------------------------
  Threads set to 4 by Python driver.

  Memory set to   7.451 GiB by Python driver.

Scratch directory: /scratch2/vance/psi4/

*** tstart() called on cmpsrv002
*** at Thu Sep 19 14:16:08 2024

  SAPT does not make use of molecular symmetry, further calculations in C1 point group.

         ---------------------------------------------------------
                            SAPT(DFT) Procedure                    

                           by Daniel G. A. Smith                   
         ---------------------------------------------------------

Warning! The default value of SAPT_DFT_EXCH_DISP_SCALE_SCHEME has changed from DISP to FIXED. Please be careful comparing results with earlier versions. 

  ==> Algorithm <==

   SAPT DFT Functional             PBE0
   Monomer A GRAC Shift        0.106591
   Monomer B GRAC Shift        0.113162
   Delta HF                        True
   JK Algorithm                      DF

   Required computations:
     HF  (Dimer)
     HF  (Monomer A)
     HF  (Monomer B)
     DFT (Monomer A)
     DFT (Monomer B)

   => Libint2 <=

    Primary   basis highest AM E, G, H:  6, 6, 3
    Auxiliary basis highest AM E, G, H:  7, 7, 4
    Onebody   basis highest AM E, G, H:  -, -, -
    Solid Harmonics ordering:            Gaussian

*** tstart() called on cmpsrv002
*** at Thu Sep 19 14:16:08 2024

   => Loading Basis Set <=

    Name: THIS_BASIS
    Role: ORBITAL
    Keyword: BASIS
    atoms 1, 4-6 entry H          line    15 file /home/vance/anaconda3/envs/p4env/share/psi4/basis/def2-qzvp.gbs 
    atoms 2      entry BR         line  2253 file /home/vance/anaconda3/envs/p4env/share/psi4/basis/def2-qzvp.gbs 
    atoms 3      entry N          line   242 file /home/vance/anaconda3/envs/p4env/share/psi4/basis/def2-qzvp.gbs 


         ---------------------------------------------------------
                         SAPT(DFT): delta HF Dimer                 
         ---------------------------------------------------------
                                   SCF
               by Justin Turney, Rob Parrish, Andy Simmonett
                          and Daniel G. A. Smith
                              RHF Reference
                        4 Threads,   7629 MiB Core
         ---------------------------------------------------------

  ==> Geometry <==

    Molecular point group: c1
    Full point group: C1

    Geometry (in Angstrom), charge = 0, multiplicity = 1:

       Center              X                  Y                   Z               Mass       
    ------------   -----------------  -----------------  -----------------  -----------------
         H            0.000022663468    -0.860208352194     0.000000000000     1.007825032230
         BR          -0.000007336532     0.654011647806     0.000000000000    78.918337600000
         N            0.000032663468    -2.917848352194     0.000000000000    14.003074004430
         H           -0.474347336532    -3.270318352194     0.821650000000     1.007825032230
         H           -0.474347336532    -3.270318352194    -0.821650000000     1.007825032230
         H            0.948792663468    -3.270318352194     0.000000000000     1.007825032230

  Running in c1 symmetry.

  Rotational constants: A =      6.19409  B =      0.08995  C =      0.08995 [cm^-1]
  Rotational constants: A = 185694.14444  B =   2696.52969  C =   2696.52968 [MHz]
  Nuclear repulsion =   76.649846688140457

  Charge       = 0
  Multiplicity = 1
  Electrons    = 46
  Nalpha       = 23
  Nbeta        = 23

  ==> Algorithm <==

  SCF Algorithm Type is DF.
  DIIS enabled.
  MOM disabled.
  Fractional occupation disabled.
  Guess Type is SAD.
  Energy threshold   = 1.00e-08
  Density threshold  = 1.00e-08
  Integral threshold = 1.00e-12

  ==> Primary Basis <==

  Basis Set: THIS_BASIS
    Blend: DEF2-QZVP
    Number of shells: 82
    Number of basis functions: 252
    Number of Cartesian functions: 303
    Spherical Harmonics?: true
    Max angular momentum: 4

   => Loading Basis Set <=

    Name: (THIS_BASIS AUX)
    Role: JKFIT
    Keyword: DF_BASIS_SCF
    atoms 1, 4-6 entry H          line    18 file /home/vance/anaconda3/envs/p4env/share/psi4/basis/def2-universal-jkfit.gbs 
    atoms 2      entry BR         line  3124 file /home/vance/anaconda3/envs/p4env/share/psi4/basis/def2-universal-jkfit.gbs 
    atoms 3      entry N          line   258 file /home/vance/anaconda3/envs/p4env/share/psi4/basis/def2-universal-jkfit.gbs 

  ==> Integral Setup <==

  ==> DiskDFJK: Density-Fitted J/K Matrices <==

    J tasked:                  Yes
    K tasked:                  Yes
    wK tasked:                  No
    OpenMP threads:              4
    Integrals threads:           4
    Memory [MiB]:             5722
    Algorithm:                Core
    Integral Cache:           SAVE
    Schwarz Cutoff:          1E-12
    Fitting Condition:       1E-10

   => Auxiliary Basis Set <=

  Basis Set: (THIS_BASIS AUX)
    Blend: DEF2-UNIVERSAL-JKFIT
    Number of shells: 109
    Number of basis functions: 415
    Number of Cartesian functions: 544
    Spherical Harmonics?: true
    Max angular momentum: 5

  Minimum eigenvalue in the overlap matrix is 1.2622888464E-04.
  Reciprocal condition number of the overlap matrix is 1.5514930256E-05.
    Using symmetric orthogonalization.

  ==> Pre-Iterations <==

  SCF Guess: Superposition of Atomic Densities via on-the-fly atomic UHF (no occupation information).

   -------------------------
    Irrep   Nso     Nmo    
   -------------------------
     A        252     252 
   -------------------------
    Total     252     252
   -------------------------

  ==> Iterations <==

                           Total Energy        Delta E     RMS |[F,P]|

   @DF-RHF iter SAD: -2626.83664420783589   -2.62684e+03   0.00000e+00 
   @DF-RHF iter   1: -2628.90363843610157   -2.06699e+00   7.02976e-03 ADIIS/DIIS
   @DF-RHF iter   2: -2629.15065979540668   -2.47021e-01   4.62250e-03 ADIIS/DIIS
   @DF-RHF iter   3: -2629.27833173495310   -1.27672e-01   1.59179e-04 ADIIS/DIIS
   @DF-RHF iter   4: -2629.27936350511754   -1.03177e-03   5.26837e-05 DIIS
   @DF-RHF iter   5: -2629.27950741188170   -1.43907e-04   1.78096e-05 DIIS
   @DF-RHF iter   6: -2629.27952681419356   -1.94023e-05   5.82405e-06 DIIS
   @DF-RHF iter   7: -2629.27952873731783   -1.92312e-06   1.19017e-06 DIIS
   @DF-RHF iter   8: -2629.27952888078380   -1.43466e-07   3.68993e-07 DIIS
   @DF-RHF iter   9: -2629.27952888973641   -8.95261e-09   6.19397e-08 DIIS
   @DF-RHF iter  10: -2629.27952889004200   -3.05590e-10   9.51003e-09 DIIS
  Energy and wave function converged.


  ==> Post-Iterations <==

    Orbital Energies [Eh]
    ---------------------

    Doubly Occupied:                                                      

       1A   -490.002340     2A    -65.142312     3A    -58.497664  
       4A    -58.496589     5A    -58.496589     6A    -15.572608  
       7A     -9.814519     8A     -7.425225     9A     -7.420052  
      10A     -7.420052    11A     -3.168672    12A     -3.165610  
      13A     -3.165610    14A     -3.158882    15A     -3.158882  
      16A     -1.173539    17A     -0.988512    18A     -0.664338  
      19A     -0.664338    20A     -0.551304    21A     -0.445053  
      22A     -0.402726    23A     -0.402726  

    Virtual:                                                              

      24A      0.088001    25A      0.143507    26A      0.143507  
      27A      0.159961    28A      0.236965    29A      0.264897  
      30A      0.264898    31A      0.296764    32A      0.315471  
      33A      0.315472    34A      0.334396    35A      0.449953  
      36A      0.449953    37A      0.492834    38A      0.496026  
      39A      0.496027    40A      0.507897    41A      0.507897  
      42A      0.551603    43A      0.551603    44A      0.566786  
      45A      0.654382    46A      0.801495    47A      0.835423  
      48A      0.835423    49A      0.844811    50A      0.878731  
      51A      0.878732    52A      0.946126    53A      1.036873  
      54A      1.036873    55A      1.046736    56A      1.046736  
      57A      1.076972    58A      1.134030    59A      1.204792  
      60A      1.215981    61A      1.215981    62A      1.237844  
      63A      1.237909    64A      1.248353    65A      1.248353  
      66A      1.275328    67A      1.290510    68A      1.290510  
      69A      1.378053    70A      1.378053    71A      1.382112  
      72A      1.471785    73A      1.507935    74A      1.507936  
      75A      1.682558    76A      1.726264    77A      1.726264  
      78A      1.757912    79A      1.757912    80A      1.834726  
      81A      1.879669    82A      1.879670    83A      2.020353  
      84A      2.184401    85A      2.184401    86A      2.246719  
      87A      2.272872    88A      2.272872    89A      2.316121  
      90A      2.366695    91A      2.432668    92A      2.432668  
      93A      2.463685    94A      2.463685    95A      2.507526  
      96A      2.507528    97A      2.580567    98A      2.580568  
      99A      2.627615   100A      2.663132   101A      2.663133  
     102A      2.728437   103A      2.751191   104A      2.751191  
     105A      2.788106   106A      2.866578   107A      2.936978  
     108A      2.955895   109A      2.955896   110A      3.023141  
     111A      3.023278   112A      3.028539   113A      3.028539  
     114A      3.030190   115A      3.040151   116A      3.040151  
     117A      3.070386   118A      3.070386   119A      3.095027  
     120A      3.095168   121A      3.166590   122A      3.166590  
     123A      3.205649   124A      3.223940   125A      3.253459  
     126A      3.253460   127A      3.324719   128A      3.324722  
     129A      3.496104   130A      3.496104   131A      3.498100  
     132A      3.595839   133A      3.850031   134A      3.850031  
     135A      3.871235   136A      3.952408   137A      3.952410  
     138A      4.011065   139A      4.082249   140A      4.155622  
     141A      4.343862   142A      4.343862   143A      4.350945  
     144A      4.350945   145A      4.555939   146A      4.616550  
     147A      4.616550   148A      4.660612   149A      5.129921  
     150A      5.399050   151A      5.399051   152A      5.471962  
     153A      5.471962   154A      5.526632   155A      5.556356  
     156A      5.556357   157A      6.082962   158A      6.084501  
     159A      6.127825   160A      6.127825   161A      6.232761  
     162A      6.232762   163A      6.256577   164A      6.297628  
     165A      6.338907   166A      6.338908   167A      6.392744  
     168A      6.392746   169A      6.736214   170A      6.759080  
     171A      6.907685   172A      6.907685   173A      6.970414  
     174A      6.997816   175A      6.997817   176A      7.106687  
     177A      7.106687   178A      7.235340   179A      7.326918  
     180A      7.326918   181A      7.436654   182A      7.580131  
     183A      7.580131   184A      7.583962   185A      7.653775  
     186A      7.663724   187A      7.663724   188A      7.948195  
     189A      7.948196   190A      7.979041   191A      8.006431  
     192A      8.088306   193A      8.088307   194A      8.108506  
     195A      8.108507   196A      8.250525   197A      8.250526  
     198A      8.264166   199A      8.296234   200A      8.296238  
     201A      8.353062   202A      8.394177   203A      8.394181  
     204A      8.485536   205A      8.514574   206A      8.615028  
     207A      8.626102   208A      8.677295   209A      8.677296  
     210A      8.807616   211A      8.837751   212A      8.837752  
     213A      8.942597   214A      8.942598   215A      9.028975  
     216A      9.029210   217A      9.029211   218A      9.253642  
     219A      9.519980   220A      9.519981   221A      9.718401  
     222A      9.819921   223A      9.819921   224A      9.820538  
     225A     10.088750   226A     10.096347   227A     10.096347  
     228A     10.278880   229A     10.506026   230A     10.506026  
     231A     10.588934   232A     11.587386   233A     11.672033  
     234A     11.672034   235A     12.066861   236A     12.103200  
     237A     12.103200   238A     12.273572   239A     12.273572  
     240A     12.438844   241A     14.458928   242A     14.458928  
     243A     14.792080   244A     14.823256   245A     14.823256  
     246A     15.702537   247A     30.228053   248A     39.413305  
     249A     96.729940   250A    200.535197   251A    325.249288  
     252A   1828.213578  

    Final Occupation by Irrep:
              A 
    DOCC [    23 ]
    NA   [    23 ]
    NB   [    23 ]

  @DF-RHF Final Energy: -2629.27952889004200

   => Energetics <=

    Nuclear Repulsion Energy =             76.6498466881404568
    One-Electron Energy =               -3813.0624689108167331
    Two-Electron Energy =                1107.1330933326341892
    Total Energy =                      -2629.2795288900424566

Computation Completed


Properties will be evaluated at   0.000000,   0.000000,   0.000000 [a0]

Properties computed using the SCF density matrix


 Multipole Moments:

 ------------------------------------------------------------------------------------
     Multipole            Electronic (a.u.)      Nuclear  (a.u.)        Total (a.u.)
 ------------------------------------------------------------------------------------

 L = 1.  Multiply by 2.5417464519 to convert [e a0] to [Debye]
 Dipole X            :         -0.0001599            0.0001748            0.0000149
 Dipole Y            :         13.9240744          -15.5065147           -1.5824403
 Dipole Z            :         -0.0000000            0.0000000           -0.0000000
 Magnitude           :                                                    1.5824403

 ------------------------------------------------------------------------------------

*** tstop() called on cmpsrv002 at Thu Sep 19 14:19:29 2024
Module time:
	user time   =      14.56 seconds =       0.24 minutes
	system time =       1.77 seconds =       0.03 minutes
	total time  =        201 seconds =       3.35 minutes
Total time:
	user time   =      14.57 seconds =       0.24 minutes
	system time =       1.77 seconds =       0.03 minutes
	total time  =        201 seconds =       3.35 minutes
   => Libint2 <=

    Primary   basis highest AM E, G, H:  6, 6, 3
    Auxiliary basis highest AM E, G, H:  7, 7, 4
    Onebody   basis highest AM E, G, H:  -, -, -
    Solid Harmonics ordering:            Gaussian

*** tstart() called on cmpsrv002
*** at Thu Sep 19 14:19:29 2024

   => Loading Basis Set <=

    Name: THIS_BASIS
    Role: ORBITAL
    Keyword: BASIS
    atoms 1, 4-6 entry H          line    15 file /home/vance/anaconda3/envs/p4env/share/psi4/basis/def2-qzvp.gbs 
    atoms 2      entry BR         line  2253 file /home/vance/anaconda3/envs/p4env/share/psi4/basis/def2-qzvp.gbs 
    atoms 3      entry N          line   242 file /home/vance/anaconda3/envs/p4env/share/psi4/basis/def2-qzvp.gbs 


         ---------------------------------------------------------
                       SAPT(DFT): delta HF Monomer A               
         ---------------------------------------------------------
                                   SCF
               by Justin Turney, Rob Parrish, Andy Simmonett
                          and Daniel G. A. Smith
                              RHF Reference
                        4 Threads,   7629 MiB Core
         ---------------------------------------------------------

  ==> Geometry <==

    Molecular point group: c1
    Full point group: C1

    Geometry (in Angstrom), charge = 0, multiplicity = 1:

       Center              X                  Y                   Z               Mass       
    ------------   -----------------  -----------------  -----------------  -----------------
         H            0.000022663468    -0.860208352194     0.000000000000     1.007825032230
         BR          -0.000007336532     0.654011647806     0.000000000000    78.918337600000
      Gh(N)           0.000032663468    -2.917848352194     0.000000000000    14.003074004430
      Gh(H)          -0.474347336532    -3.270318352194     0.821650000000     1.007825032230
      Gh(H)          -0.474347336532    -3.270318352194    -0.821650000000     1.007825032230
      Gh(H)           0.948792663468    -3.270318352194     0.000000000000     1.007825032230

  Running in c1 symmetry.

  Rotational constants: A =      6.19409  B =      0.08995  C =      0.08995 [cm^-1]
  Rotational constants: A = 185694.14444  B =   2696.52969  C =   2696.52968 [MHz]
  Nuclear repulsion =   12.231513498576831

  Charge       = 0
  Multiplicity = 1
  Electrons    = 36
  Nalpha       = 18
  Nbeta        = 18

  ==> Algorithm <==

  SCF Algorithm Type is DF.
  DIIS enabled.
  MOM disabled.
  Fractional occupation disabled.
  Guess Type is SAD.
  Energy threshold   = 1.00e-08
  Density threshold  = 1.00e-08
  Integral threshold = 1.00e-12

  ==> Primary Basis <==

  Basis Set: THIS_BASIS
    Blend: DEF2-QZVP
    Number of shells: 82
    Number of basis functions: 252
    Number of Cartesian functions: 303
    Spherical Harmonics?: true
    Max angular momentum: 4

   => Loading Basis Set <=

    Name: (THIS_BASIS AUX)
    Role: JKFIT
    Keyword: DF_BASIS_SCF
    atoms 1, 4-6 entry H          line    18 file /home/vance/anaconda3/envs/p4env/share/psi4/basis/def2-universal-jkfit.gbs 
    atoms 2      entry BR         line  3124 file /home/vance/anaconda3/envs/p4env/share/psi4/basis/def2-universal-jkfit.gbs 
    atoms 3      entry N          line   258 file /home/vance/anaconda3/envs/p4env/share/psi4/basis/def2-universal-jkfit.gbs 

  ==> Integral Setup <==

  ==> DiskDFJK: Density-Fitted J/K Matrices <==

    J tasked:                  Yes
    K tasked:                  Yes
    wK tasked:                  No
    OpenMP threads:              4
    Integrals threads:           4
    Memory [MiB]:             5722
    Algorithm:                Core
    Integral Cache:           SAVE
    Schwarz Cutoff:          1E-12
    Fitting Condition:       1E-10

   => Auxiliary Basis Set <=

  Basis Set: (THIS_BASIS AUX)
    Blend: DEF2-UNIVERSAL-JKFIT
    Number of shells: 109
    Number of basis functions: 415
    Number of Cartesian functions: 544
    Spherical Harmonics?: true
    Max angular momentum: 5

  Minimum eigenvalue in the overlap matrix is 1.2622888464E-04.
  Reciprocal condition number of the overlap matrix is 1.5514930256E-05.
    Using symmetric orthogonalization.

  ==> Pre-Iterations <==

  SCF Guess: Superposition of Atomic Densities via on-the-fly atomic UHF (no occupation information).

   -------------------------
    Irrep   Nso     Nmo    
   -------------------------
     A        252     252 
   -------------------------
    Total     252     252
   -------------------------

  ==> Iterations <==

                           Total Energy        Delta E     RMS |[F,P]|

   @DF-RHF iter SAD: -2571.10345933151848   -2.57110e+03   0.00000e+00 
   @DF-RHF iter   1: -2572.74133309852505   -1.63787e+00   6.82402e-03 ADIIS/DIIS
   @DF-RHF iter   2: -2572.93153385191272   -1.90201e-01   4.54521e-03 ADIIS/DIIS
   @DF-RHF iter   3: -2573.04563944816891   -1.14106e-01   1.02161e-04 ADIIS/DIIS
   @DF-RHF iter   4: -2573.04613775119560   -4.98303e-04   3.63030e-05 DIIS
   @DF-RHF iter   5: -2573.04621952124671   -8.17701e-05   1.04232e-05 DIIS
   @DF-RHF iter   6: -2573.04622943378990   -9.91254e-06   2.14442e-06 DIIS
   @DF-RHF iter   7: -2573.04622973122923   -2.97439e-07   4.00099e-07 DIIS
   @DF-RHF iter   8: -2573.04622974114773   -9.91849e-09   5.60343e-08 DIIS
   @DF-RHF iter   9: -2573.04622974142649   -2.78760e-10   7.59823e-09 DIIS
  Energy and wave function converged.


  ==> Post-Iterations <==

    Orbital Energies [Eh]
    ---------------------

    Doubly Occupied:                                                      

       1A   -490.040296     2A    -65.179822     3A    -58.535401  
       4A    -58.533944     5A    -58.533944     6A     -9.851708  
       7A     -7.463137     8A     -7.456566     9A     -7.456566  
      10A     -3.207053    11A     -3.203308    12A     -3.203308  
      13A     -3.194701    14A     -3.194701    15A     -1.020397  
      16A     -0.564635    17A     -0.433475    18A     -0.433475  

    Virtual:                                                              

      19A      0.052127    20A      0.119565    21A      0.137214  
      22A      0.137214    23A      0.217558    24A      0.236241  
      25A      0.268908    26A      0.268908    27A      0.308471  
      28A      0.308471    29A      0.326516    30A      0.369817  
      31A      0.438572    32A      0.438573    33A      0.476193  
      34A      0.476193    35A      0.546003    36A      0.546004  
      37A      0.551302    38A      0.606162    39A      0.646194  
      40A      0.646194    41A      0.795765    42A      0.835989  
      43A      0.835990    44A      0.877424    45A      0.922558  
      46A      0.942684    47A      0.946487    48A      0.946487  
      49A      1.036997    50A      1.094418    51A      1.094419  
      52A      1.110519    53A      1.110519    54A      1.148205  
      55A      1.189123    56A      1.189123    57A      1.211236  
      58A      1.211269    59A      1.257009    60A      1.257009  
      61A      1.283266    62A      1.304958    63A      1.353443  
      64A      1.353443    65A      1.373553    66A      1.373553  
      67A      1.512671    68A      1.550487    69A      1.550487  
      70A      1.567501    71A      1.696157    72A      1.696157  
      73A      1.740826    74A      1.740827    75A      1.752225  
      76A      1.930838    77A      2.059724    78A      2.131319  
      79A      2.131320    80A      2.187108    81A      2.187110  
      82A      2.356206    83A      2.408741    84A      2.408742  
      85A      2.468232    86A      2.474999    87A      2.474999  
      88A      2.536839    89A      2.536840    90A      2.537130  
      91A      2.666973    92A      2.666974    93A      2.682083  
      94A      2.698273    95A      2.698273    96A      2.699092  
      97A      2.856901    98A      2.856902    99A      2.872381  
     100A      2.872381   101A      2.875674   102A      2.939237  
     103A      2.939237   104A      2.968654   105A      2.991501  
     106A      2.991506   107A      3.010787   108A      3.010787  
     109A      3.033677   110A      3.033678   111A      3.036063  
     112A      3.064129   113A      3.064183   114A      3.110314  
     115A      3.110315   116A      3.191787   117A      3.227075  
     118A      3.227076   119A      3.307874   120A      3.388510  
     121A      3.388512   122A      3.424566   123A      3.444639  
     124A      3.444640   125A      3.538001   126A      3.748802  
     127A      3.748802   128A      3.762689   129A      3.782261  
     130A      3.782261   131A      3.886216   132A      3.992364  
     133A      3.992365   134A      4.125242   135A      4.265602  
     136A      4.322381   137A      4.322381   138A      4.390398  
     139A      4.462395   140A      4.545724   141A      4.545724  
     142A      4.622595   143A      5.055608   144A      5.055608  
     145A      5.403637   146A      5.438777   147A      5.438777  
     148A      5.481133   149A      5.517777   150A      5.517777  
     151A      6.005244   152A      6.005244   153A      6.049466  
     154A      6.051391   155A      6.346292   156A      6.346293  
     157A      6.430229   158A      6.430229   159A      6.462340  
     160A      6.462340   161A      6.502231   162A      6.552022  
     163A      6.755983   164A      6.755984   165A      6.851954  
     166A      6.986641   167A      6.986642   168A      7.156903  
     169A      7.156903   170A      7.377891   171A      7.377891  
     172A      7.387471   173A      7.398748   174A      7.644194  
     175A      7.655423   176A      7.770863   177A      7.770863  
     178A      7.958491   179A      8.036364   180A      8.036365  
     181A      8.151098   182A      8.161141   183A      8.161141  
     184A      8.207973   185A      8.207973   186A      8.273603  
     187A      8.385681   188A      8.446336   189A      8.446336  
     190A      8.552404   191A      8.585923   192A      8.585924  
     193A      8.712506   194A      8.712506   195A      8.757613  
     196A      8.761886   197A      8.761886   198A      8.791048  
     199A      8.978720   200A      8.978721   201A      8.989057  
     202A      9.134454   203A      9.134456   204A      9.140058  
     205A      9.166590   206A      9.285108   207A      9.311921  
     208A      9.311921   209A      9.479754   210A      9.704535  
     211A      9.704535   212A      9.718355   213A      9.813200  
     214A      9.960242   215A     10.080546   216A     10.080546  
     217A     10.193360   218A     10.193360   219A     10.302106  
     220A     10.678160   221A     10.678160   222A     11.005929  
     223A     11.005929   224A     11.198124   225A     11.435601  
     226A     11.762213   227A     11.762213   228A     12.351191  
     229A     12.351193   230A     12.766551   231A     13.684863  
     232A     13.851620   233A     13.851621   234A     14.150260  
     235A     14.276832   236A     14.276832   237A     14.424018  
     238A     14.424018   239A     14.570876   240A     14.570877  
     241A     14.571118   242A     14.759553   243A     16.042263  
     244A     18.212700   245A     18.212702   246A     25.540334  
     247A     30.191773   248A     70.304711   249A     96.692807  
     250A    318.675134   251A    325.211933   252A   1828.175715  

    Final Occupation by Irrep:
              A 
    DOCC [    18 ]
    NA   [    18 ]
    NB   [    18 ]

  @DF-RHF Final Energy: -2573.04622974142649

   => Energetics <=

    Nuclear Repulsion Energy =             12.2315134985768310
    One-Electron Energy =               -3607.5426183812910494
    Two-Electron Energy =                1022.2648751412879164
    Total Energy =                      -2573.0462297414260320

Computation Completed


Properties will be evaluated at   0.000000,   0.000000,   0.000000 [a0]

Properties computed using the SCF density matrix


 Multipole Moments:

 ------------------------------------------------------------------------------------
     Multipole            Electronic (a.u.)      Nuclear  (a.u.)        Total (a.u.)
 ------------------------------------------------------------------------------------

 L = 1.  Multiply by 2.5417464519 to convert [e a0] to [Debye]
 Dipole X            :          0.0004505           -0.0004424            0.0000081
 Dipole Y            :        -42.0394651           41.6310432           -0.4084219
 Dipole Z            :          0.0000000            0.0000000            0.0000000
 Magnitude           :                                                    0.4084219

 ------------------------------------------------------------------------------------

*** tstop() called on cmpsrv002 at Thu Sep 19 14:21:23 2024
Module time:
	user time   =      11.72 seconds =       0.20 minutes
	system time =       1.19 seconds =       0.02 minutes
	total time  =        114 seconds =       1.90 minutes
Total time:
	user time   =      26.29 seconds =       0.44 minutes
	system time =       2.96 seconds =       0.05 minutes
	total time  =        315 seconds =       5.25 minutes
   => Libint2 <=

    Primary   basis highest AM E, G, H:  6, 6, 3
    Auxiliary basis highest AM E, G, H:  7, 7, 4
    Onebody   basis highest AM E, G, H:  -, -, -
    Solid Harmonics ordering:            Gaussian

*** tstart() called on cmpsrv002
*** at Thu Sep 19 14:21:23 2024

   => Loading Basis Set <=

    Name: THIS_BASIS
    Role: ORBITAL
    Keyword: BASIS
    atoms 1, 4-6 entry H          line    15 file /home/vance/anaconda3/envs/p4env/share/psi4/basis/def2-qzvp.gbs 
    atoms 2      entry BR         line  2253 file /home/vance/anaconda3/envs/p4env/share/psi4/basis/def2-qzvp.gbs 
    atoms 3      entry N          line   242 file /home/vance/anaconda3/envs/p4env/share/psi4/basis/def2-qzvp.gbs 


         ---------------------------------------------------------
                       SAPT(DFT): delta HF Monomer B               
         ---------------------------------------------------------
                                   SCF
               by Justin Turney, Rob Parrish, Andy Simmonett
                          and Daniel G. A. Smith
                              RHF Reference
                        4 Threads,   7629 MiB Core
         ---------------------------------------------------------

  ==> Geometry <==

    Molecular point group: c1
    Full point group: C1

    Geometry (in Angstrom), charge = 0, multiplicity = 1:

       Center              X                  Y                   Z               Mass       
    ------------   -----------------  -----------------  -----------------  -----------------
      Gh(H)           0.000022663468    -0.860208352194     0.000000000000     1.007825032230
      Gh(BR)         -0.000007336532     0.654011647806     0.000000000000    78.918337600000
         N            0.000032663468    -2.917848352194     0.000000000000    14.003074004430
         H           -0.474347336532    -3.270318352194     0.821650000000     1.007825032230
         H           -0.474347336532    -3.270318352194    -0.821650000000     1.007825032230
         H            0.948792663468    -3.270318352194     0.000000000000     1.007825032230

  Running in c1 symmetry.

  Rotational constants: A =      6.19409  B =      0.08995  C =      0.08995 [cm^-1]
  Rotational constants: A = 185694.14444  B =   2696.52969  C =   2696.52968 [MHz]
  Nuclear repulsion =   11.945746185352998

  Charge       = 0
  Multiplicity = 1
  Electrons    = 10
  Nalpha       = 5
  Nbeta        = 5

  ==> Algorithm <==

  SCF Algorithm Type is DF.
  DIIS enabled.
  MOM disabled.
  Fractional occupation disabled.
  Guess Type is SAD.
  Energy threshold   = 1.00e-08
  Density threshold  = 1.00e-08
  Integral threshold = 1.00e-12

  ==> Primary Basis <==

  Basis Set: THIS_BASIS
    Blend: DEF2-QZVP
    Number of shells: 82
    Number of basis functions: 252
    Number of Cartesian functions: 303
    Spherical Harmonics?: true
    Max angular momentum: 4

   => Loading Basis Set <=

    Name: (THIS_BASIS AUX)
    Role: JKFIT
    Keyword: DF_BASIS_SCF
    atoms 1, 4-6 entry H          line    18 file /home/vance/anaconda3/envs/p4env/share/psi4/basis/def2-universal-jkfit.gbs 
    atoms 2      entry BR         line  3124 file /home/vance/anaconda3/envs/p4env/share/psi4/basis/def2-universal-jkfit.gbs 
    atoms 3      entry N          line   258 file /home/vance/anaconda3/envs/p4env/share/psi4/basis/def2-universal-jkfit.gbs 

  ==> Integral Setup <==

  ==> DiskDFJK: Density-Fitted J/K Matrices <==

    J tasked:                  Yes
    K tasked:                  Yes
    wK tasked:                  No
    OpenMP threads:              4
    Integrals threads:           4
    Memory [MiB]:             5722
    Algorithm:                Core
    Integral Cache:           SAVE
    Schwarz Cutoff:          1E-12
    Fitting Condition:       1E-10

   => Auxiliary Basis Set <=

  Basis Set: (THIS_BASIS AUX)
    Blend: DEF2-UNIVERSAL-JKFIT
    Number of shells: 109
    Number of basis functions: 415
    Number of Cartesian functions: 544
    Spherical Harmonics?: true
    Max angular momentum: 5

  Minimum eigenvalue in the overlap matrix is 1.2622888464E-04.
  Reciprocal condition number of the overlap matrix is 1.5514930256E-05.
    Using symmetric orthogonalization.

  ==> Pre-Iterations <==

  SCF Guess: Superposition of Atomic Densities via on-the-fly atomic UHF (no occupation information).

   -------------------------
    Irrep   Nso     Nmo    
   -------------------------
     A        252     252 
   -------------------------
    Total     252     252
   -------------------------

  ==> Iterations <==

                           Total Energy        Delta E     RMS |[F,P]|

   @DF-RHF iter SAD:   -55.65137824574027   -5.56514e+01   0.00000e+00 
   @DF-RHF iter   1:   -56.12999884983316   -4.78621e-01   1.82279e-03 DIIS/ADIIS
   @DF-RHF iter   2:   -56.19694435414499   -6.69455e-02   1.05082e-03 DIIS/ADIIS
   @DF-RHF iter   3:   -56.22379554747182   -2.68512e-02   9.74333e-05 DIIS
   @DF-RHF iter   4:   -56.22442332716834   -6.27780e-04   1.80852e-05 DIIS
   @DF-RHF iter   5:   -56.22444376792117   -2.04408e-05   3.36907e-06 DIIS
   @DF-RHF iter   6:   -56.22444497079486   -1.20287e-06   8.55660e-07 DIIS
   @DF-RHF iter   7:   -56.22444505299491   -8.22000e-08   1.89189e-07 DIIS
   @DF-RHF iter   8:   -56.22444505729889   -4.30398e-09   3.01493e-08 DIIS
   @DF-RHF iter   9:   -56.22444505740786   -1.08969e-10   8.44522e-09 DIIS
  Energy and wave function converged.


  ==> Post-Iterations <==

    Orbital Energies [Eh]
    ---------------------

    Doubly Occupied:                                                      

       1A    -15.538389     2A     -1.138617     3A     -0.631177  
       4A     -0.631177     5A     -0.423990  

    Virtual:                                                              

       6A      0.098069     7A      0.120861     8A      0.155354  
       9A      0.155354    10A      0.194242    11A      0.194242  
      12A      0.217869    13A      0.323583    14A      0.323584  
      15A      0.327505    16A      0.376121    17A      0.502666  
      18A      0.522125    19A      0.522125    20A      0.529660  
      21A      0.544935    22A      0.544935    23A      0.656701  
      24A      0.675789    25A      0.675789    26A      0.737760  
      27A      0.737760    28A      0.742998    29A      0.742998  
      30A      0.795173    31A      0.835135    32A      0.868232  
      33A      0.916041    34A      0.916043    35A      0.949297  
      36A      0.949298    37A      0.952826    38A      1.069353  
      39A      1.076907    40A      1.076907    41A      1.124295  
      42A      1.124295    43A      1.207638    44A      1.293887  
      45A      1.312161    46A      1.312161    47A      1.388386  
      48A      1.407949    49A      1.433880    50A      1.433880  
      51A      1.444754    52A      1.444754    53A      1.446737  
      54A      1.446919    55A      1.556266    56A      1.705967  
      57A      1.705967    58A      1.844433    59A      1.857745  
      60A      1.857745    61A      1.946565    62A      1.946565  
      63A      2.027786    64A      2.077268    65A      2.299878  
      66A      2.299879    67A      2.310471    68A      2.342813  
      69A      2.366313    70A      2.366315    71A      2.395668  
      72A      2.410946    73A      2.410946    74A      2.467606  
      75A      2.467606    76A      2.468710    77A      2.497072  
      78A      2.497072    79A      2.560413    80A      2.560416  
      81A      2.621085    82A      2.621087    83A      2.655706  
      84A      2.655709    85A      2.761038    86A      2.850834  
      87A      2.850836    88A      2.862216    89A      2.898578  
      90A      2.949281    91A      2.949281    92A      2.983745  
      93A      3.057799    94A      3.074169    95A      3.074169  
      96A      3.193745    97A      3.193745    98A      3.232149  
      99A      3.286330   100A      3.286331   101A      3.305659  
     102A      3.546472   103A      3.550765   104A      3.550765  
     105A      3.583253   106A      3.583316   107A      3.586683  
     108A      3.586683   109A      3.657749   110A      3.763299  
     111A      3.763299   112A      3.943740   113A      3.978009  
     114A      3.978009   115A      4.045823   116A      4.190887  
     117A      4.361470   118A      4.361470   119A      4.436723  
     120A      4.436724   121A      4.507131   122A      4.507152  
     123A      4.518172   124A      4.518172   125A      4.560900  
     126A      4.583024   127A      4.583024   128A      4.612213  
     129A      4.624369   130A      4.624370   131A      4.658097  
     132A      4.706225   133A      4.706226   134A      5.144735  
     135A      5.292670   136A      5.439778   137A      5.439779  
     138A      5.630285   139A      6.161270   140A      6.161270  
     141A      6.263070   142A      6.263070   143A      6.327837  
     144A      6.368171   145A      6.375342   146A      6.375343  
     147A      6.376972   148A      6.379549   149A      6.695398  
     150A      6.695398   151A      6.789533   152A      6.869377  
     153A      6.869377   154A      6.923748   155A      6.942095  
     156A      6.942096   157A      6.976547   158A      6.976547  
     159A      7.041287   160A      7.120509   161A      7.120510  
     162A      7.265192   163A      7.359945   164A      7.359946  
     165A      7.537834   166A      7.587612   167A      7.587612  
     168A      7.645786   169A      7.659609   170A      7.659609  
     171A      7.689652   172A      7.713817   173A      7.713817  
     174A      7.911964   175A      7.995365   176A      7.995366  
     177A      8.047587   178A      8.139066   179A      8.139066  
     180A      8.295637   181A      8.323503   182A      8.323503  
     183A      8.419022   184A      8.431444   185A      8.431445  
     186A      8.516865   187A      8.564295   188A      8.658264  
     189A      8.699365   190A      8.699365   191A      8.795787  
     192A      8.836801   193A      8.836803   194A      8.918391  
     195A      8.918392   196A      8.987055   197A      9.006539  
     198A      9.006539   199A      9.097670   200A      9.097671  
     201A      9.148338   202A      9.480162   203A      9.480162  
     204A      9.496915   205A      9.559343   206A      9.559343  
     207A      9.869358   208A      9.869359   209A     10.082943  
     210A     10.132989   211A     10.132989   212A     10.140573  
     213A     10.312926   214A     10.539167   215A     10.539167  
     216A     10.616933   217A     10.883271   218A     10.968150  
     219A     10.968150   220A     11.500560   221A     11.625368  
     222A     11.704911   223A     11.704912   224A     12.103459  
     225A     12.136432   226A     12.136432   227A     12.308328  
     228A     12.308329   229A     12.470663   230A     12.958875  
     231A     14.855788   232A     14.855788   233A     15.735853  
     234A     28.704234   235A     28.704234   236A     28.933430  
     237A     29.262457   238A     35.261269   239A     35.261269  
     240A     35.424488   241A     35.424488   242A     36.022165  
     243A     39.448166   244A     64.578741   245A    141.499680  
     246A    165.013495   247A    165.013495   248A    165.352364  
     249A    200.569657   250A    325.142680   251A    874.405286  
     252A   3948.432422  

    Final Occupation by Irrep:
              A 
    DOCC [     5 ]
    NA   [     5 ]
    NB   [     5 ]

  @DF-RHF Final Energy:   -56.22444505740786

   => Energetics <=

    Nuclear Repulsion Energy =             11.9457461853529985
    One-Electron Energy =                 -99.6136808081794953
    Two-Electron Energy =                  31.4434895654186306
    Total Energy =                        -56.2244450574078627

Computation Completed


Properties will be evaluated at   0.000000,   0.000000,   0.000000 [a0]

Properties computed using the SCF density matrix


 Multipole Moments:

 ------------------------------------------------------------------------------------
     Multipole            Electronic (a.u.)      Nuclear  (a.u.)        Total (a.u.)
 ------------------------------------------------------------------------------------

 L = 1.  Multiply by 2.5417464519 to convert [e a0] to [Debye]
 Dipole X            :         -0.0006173            0.0006173           -0.0000000
 Dipole Y            :         56.5312014          -57.1375579           -0.6063565
 Dipole Z            :          0.0000000            0.0000000            0.0000000
 Magnitude           :                                                    0.6063565

 ------------------------------------------------------------------------------------

*** tstop() called on cmpsrv002 at Thu Sep 19 14:23:38 2024
Module time:
	user time   =      11.85 seconds =       0.20 minutes
	system time =       0.92 seconds =       0.02 minutes
	total time  =        161 seconds =       2.68 minutes
Total time:
	user time   =      36.71 seconds =       0.61 minutes
	system time =       3.69 seconds =       0.06 minutes
	total time  =        455 seconds =       7.58 minutes

         ---------------------------------------------------------
                        SAPT(DFT): delta HF Segment                

                   by Daniel G. A. Smith and Rob Parrish           
         ---------------------------------------------------------


  ==> Preparing SAPT Data Cache <== 

  ==> DiskDFJK: Density-Fitted J/K Matrices <==

    J tasked:                  Yes
    K tasked:                  Yes
    wK tasked:                  No
    OpenMP threads:              4
    Integrals threads:           4
    Memory [MiB]:             5722
    Algorithm:                Core
    Integral Cache:           SAVE
    Schwarz Cutoff:          1E-12
    Fitting Condition:       1E-10

   => Auxiliary Basis Set <=

  Basis Set: (THIS_BASIS AUX)
    Blend: DEF2-UNIVERSAL-JKFIT
    Number of shells: 109
    Number of basis functions: 415
    Number of Cartesian functions: 544
    Spherical Harmonics?: true
    Max angular momentum: 5


  ==> E10 Electostatics <== 

    Elst10,r                        -17.72290789 [mEh]

  ==> E10 Exchange <== 

    Exch10(S^2)                      17.62738501 [mEh]
    Exch10                           17.91045504 [mEh]

  ==> E20 Induction <== 

   => Uncoupled Induction <= 

    Ind20,u (A<-B)                   -2.55726392 [mEh]
    Ind20,u (A->B)                   -4.95583468 [mEh]
    Ind20,u                          -7.51309861 [mEh]
    Exch-Ind20,u (A<-B)               1.20857880 [mEh]
    Exch-Ind20,u (A->B)               2.83922821 [mEh]
    Exch-Ind20,u                      4.04780701 [mEh]
    Exch-Ind20,u (A<-B) (S^inf)       1.24765341 [mEh]
    Exch-Ind20,u (A->B) (S^inf)       2.95630101 [mEh]
    Exch-Ind20,u (S^inf)              4.20395443 [mEh]

   => Coupled Induction <= 

   ---------------------------------------------------
              SAPT Coupled Induction Solver           
   ---------------------------------------------------
    Maxiter             =          20
    Convergence         =   1.000E-06
   ---------------------------------------------------
     Iter       (A<-B)           (B->A)      Time [s]
   ---------------------------------------------------
    Guess    1.624102e-01     1.447923e-01          0
        1    5.644172e-02     4.171258e-02          0
        2    2.104893e-02     1.272708e-02          0
        3    9.675720e-03     3.602519e-03          0
        4    7.464894e-04     7.324913e-04          0
        5    1.510515e-04     1.193510e-04          0
        6    2.847980e-05     1.728185e-05          0
        7    3.874074e-06     4.129882e-06          1
        8    5.214303e-07*    7.569308e-07*         1
   ---------------------------------------------------

    Ind20,r (A<-B)                   -2.82406095 [mEh]
    Ind20,r (A->B)                   -6.34726413 [mEh]
    Ind20,r                          -9.17132507 [mEh]
    Exch-Ind20,r (A<-B)               1.36090662 [mEh]
    Exch-Ind20,r (A->B)               3.78579851 [mEh]
    Exch-Ind20,r                      5.14670514 [mEh]
    Exch-Ind20,r (A<-B) (S^inf)       1.40481436 [mEh]
    Exch-Ind20,r (A->B) (S^inf)       3.94865291 [mEh]
    Exch-Ind20,r (S^inf)              5.35346727 [mEh]

   Partial SAPT(HF) Results, to compute Delta HF (dHF)
  ---------------------------------------------------------------------------------------------------------
    Electrostatics                  -17.72290789 [mEh]    -11.12129260 [kcal/mol]    -46.53148825 [kJ/mol]
      Elst10,r                      -17.72290789 [mEh]    -11.12129260 [kcal/mol]    -46.53148825 [kJ/mol]

    Exchange                         17.91045504 [mEh]     11.23898022 [kcal/mol]     47.02389324 [kJ/mol]
      Exch10                         17.91045504 [mEh]     11.23898022 [kcal/mol]     47.02389324 [kJ/mol]
      Exch10(S^2)                    17.62738501 [mEh]     11.06135109 [kcal/mol]     46.28069297 [kJ/mol]

    Induction (no dHF)               -4.02461994 [mEh]     -2.52548714 [kcal/mol]    -10.56663819 [kJ/mol]
      Ind20,r                        -9.17132507 [mEh]     -5.75509337 [kcal/mol]    -24.07931066 [kJ/mol]
      Exch-Ind20,r                    5.14670514 [mEh]      3.22960623 [kcal/mol]     13.51267248 [kJ/mol]
      Induction (A<-B) (no dHF)      -1.46315432 [mEh]     -0.91814320 [kcal/mol]     -3.84151115 [kJ/mol]
      Induction (A->B) (no dHF)      -2.56146561 [mEh]     -1.60734394 [kcal/mol]     -6.72512704 [kJ/mol]

    Subtotal SAPT(HF)                -3.83707278 [mEh]     -2.40779952 [kcal/mol]    -10.07423319 [kJ/mol]
    Total HF                         -8.85409120 [mEh]     -5.55602611 [kcal/mol]    -23.24641325 [kJ/mol]
    Delta HF                         -5.01701842 [mEh]     -3.14822659 [kcal/mol]    -13.17218006 [kJ/mol]
  ---------------------------------------------------------------------------------------------------------
   Partial SAPT(HF) Results, alternate SAPT0-like display
  ---------------------------------------------------------------------------------------------------------
    Induction                        -9.04163836 [mEh]     -5.67371373 [kcal/mol]    -23.73881824 [kJ/mol]
      Ind20,r                        -9.17132507 [mEh]     -5.75509337 [kcal/mol]    -24.07931066 [kJ/mol]
      Exch-Ind20,r                    5.14670514 [mEh]      3.22960623 [kcal/mol]     13.51267248 [kJ/mol]
      delta HF,r (2)                 -5.01701842 [mEh]     -3.14822659 [kcal/mol]    -13.17218006 [kJ/mol]
      Induction (A<-B)               -3.28709604 [mEh]     -2.06268391 [kcal/mol]     -8.63026947 [kJ/mol]
      Induction (A->B)               -5.75454232 [mEh]     -3.61102982 [kcal/mol]    -15.10854878 [kJ/mol]
  ---------------------------------------------------------------------------------------------------------
   => Libint2 <=

    Primary   basis highest AM E, G, H:  6, 6, 3
    Auxiliary basis highest AM E, G, H:  7, 7, 4
    Onebody   basis highest AM E, G, H:  -, -, -
    Solid Harmonics ordering:            Gaussian

*** tstart() called on cmpsrv002
*** at Thu Sep 19 14:23:40 2024

   => Loading Basis Set <=

    Name: THIS_BASIS
    Role: ORBITAL
    Keyword: BASIS
    atoms 1, 4-6 entry H          line    15 file /home/vance/anaconda3/envs/p4env/share/psi4/basis/def2-qzvp.gbs 
    atoms 2      entry BR         line  2253 file /home/vance/anaconda3/envs/p4env/share/psi4/basis/def2-qzvp.gbs 
    atoms 3      entry N          line   242 file /home/vance/anaconda3/envs/p4env/share/psi4/basis/def2-qzvp.gbs 


         ---------------------------------------------------------
                          SAPT(DFT): DFT Monomer A                 
         ---------------------------------------------------------
                                   SCF
               by Justin Turney, Rob Parrish, Andy Simmonett
                          and Daniel G. A. Smith
                              RKS Reference
                        4 Threads,   7629 MiB Core
         ---------------------------------------------------------

  ==> Geometry <==

    Molecular point group: c1
    Full point group: C1

    Geometry (in Angstrom), charge = 0, multiplicity = 1:

       Center              X                  Y                   Z               Mass       
    ------------   -----------------  -----------------  -----------------  -----------------
         H            0.000022663468    -0.860208352194     0.000000000000     1.007825032230
         BR          -0.000007336532     0.654011647806     0.000000000000    78.918337600000
      Gh(N)           0.000032663468    -2.917848352194     0.000000000000    14.003074004430
      Gh(H)          -0.474347336532    -3.270318352194     0.821650000000     1.007825032230
      Gh(H)          -0.474347336532    -3.270318352194    -0.821650000000     1.007825032230
      Gh(H)           0.948792663468    -3.270318352194     0.000000000000     1.007825032230

  Running in c1 symmetry.

  Rotational constants: A =      6.19409  B =      0.08995  C =      0.08995 [cm^-1]
  Rotational constants: A = 185694.14444  B =   2696.52969  C =   2696.52968 [MHz]
  Nuclear repulsion =   12.231513498576831

  Charge       = 0
  Multiplicity = 1
  Electrons    = 36
  Nalpha       = 18
  Nbeta        = 18

  ==> Algorithm <==

  SCF Algorithm Type is DF.
  DIIS enabled.
  MOM disabled.
  Fractional occupation disabled.
  Guess Type is SAD.
  Energy threshold   = 1.00e-08
  Density threshold  = 1.00e-08
  Integral threshold = 1.00e-12

  ==> Primary Basis <==

  Basis Set: THIS_BASIS
    Blend: DEF2-QZVP
    Number of shells: 82
    Number of basis functions: 252
    Number of Cartesian functions: 303
    Spherical Harmonics?: true
    Max angular momentum: 4

  ==> DFT Potential <==

   => LibXC <=

    Version 6.2.2
    S. Lehtola, C. Steigemann, M. J.T. Oliveira, and M. A.L. Marques.,  SoftwareX 7, 15 (2018) (10.1016/j.softx.2017.11.002)

   => Composite Functional: PBE0 <= 

    PBE0 Hyb-GGA Exchange-Correlation Functional

    C. Adamo and V. Barone.,  J. Chem. Phys. 110, 6158 (1999) (10.1063/1.478522)
    M. Ernzerhof and G. E. Scuseria.,  J. Chem. Phys. 110, 5029 (1999) (10.1063/1.478401)

    Deriv               =              1
    GGA                 =           TRUE
    Meta                =          FALSE

    Exchange Hybrid     =           TRUE
    MP2 Hybrid          =          FALSE

   => Exchange Functionals <=

    0.7500   Perdew, Burke & Ernzerhof

   => Exact (HF) Exchange <=

    0.2500               HF 

   => Correlation Functionals <=

    1.0000   Perdew, Burke & Ernzerhof

   => LibXC Density Thresholds  <==

    XC_HYB_GGA_XC_PBEH:  1.00E-15 

   => Asymptotic Correction <=

    X Functional        =    XC_GGA_X_LB
    C Functional        =   XC_LDA_C_VWN
    Bulk Shift          =       0.106591
    GRAC Alpha          =       0.500000
    GRAC Beta           =      40.000000

   => Molecular Quadrature <=

    Radial Scheme          =       TREUTLER
    Pruning Scheme         =           NONE
    Nuclear Scheme         =       TREUTLER

    Blocking Scheme        =         OCTREE
    BS radius alpha        =              1
    Pruning alpha          =              1
    Radial Points          =             75
    Spherical Points       =            302
    Total Points           =         130503
    Total Blocks           =           1043
    Max Points             =            256
    Max Functions          =            237
    Weights Tolerance      =       1.00E-15

   => Loading Basis Set <=

    Name: (THIS_BASIS AUX)
    Role: JKFIT
    Keyword: DF_BASIS_SCF
    atoms 1, 4-6 entry H          line    18 file /home/vance/anaconda3/envs/p4env/share/psi4/basis/def2-universal-jkfit.gbs 
    atoms 2      entry BR         line  3124 file /home/vance/anaconda3/envs/p4env/share/psi4/basis/def2-universal-jkfit.gbs 
    atoms 3      entry N          line   258 file /home/vance/anaconda3/envs/p4env/share/psi4/basis/def2-universal-jkfit.gbs 

  ==> Integral Setup <==

  ==> DiskDFJK: Density-Fitted J/K Matrices <==

    J tasked:                  Yes
    K tasked:                  Yes
    wK tasked:                  No
    OpenMP threads:              4
    Integrals threads:           4
    Memory [MiB]:             5014
    Algorithm:                Core
    Integral Cache:           SAVE
    Schwarz Cutoff:          1E-12
    Fitting Condition:       1E-10

   => Auxiliary Basis Set <=

  Basis Set: (THIS_BASIS AUX)
    Blend: DEF2-UNIVERSAL-JKFIT
    Number of shells: 109
    Number of basis functions: 415
    Number of Cartesian functions: 544
    Spherical Harmonics?: true
    Max angular momentum: 5

  Cached 100.0% of DFT collocation blocks in 0.691 [GiB].

  Minimum eigenvalue in the overlap matrix is 1.2622888464E-04.
  Reciprocal condition number of the overlap matrix is 1.5514930256E-05.
    Using symmetric orthogonalization.

  ==> Pre-Iterations <==

  SCF Guess: Superposition of Atomic Densities via on-the-fly atomic UHF (no occupation information).

   -------------------------
    Irrep   Nso     Nmo    
   -------------------------
     A        252     252 
   -------------------------
    Total     252     252
   -------------------------

  ==> Iterations <==

                           Total Energy        Delta E     RMS |[F,P]|

   @DF-RKS iter SAD: -2572.87175604668482   -2.57287e+03   0.00000e+00 
   @DF-RKS iter   1: -2574.05674010206531   -1.18498e+00   8.57616e-03 DIIS/ADIIS
   @DF-RKS iter   2: -2573.97459567261649    8.21444e-02   8.99889e-03 DIIS/ADIIS
   @DF-RKS iter   3: -2574.50580374877882   -5.31208e-01   2.42520e-04 DIIS/ADIIS
   @DF-RKS iter   4: -2574.50663530409111   -8.31555e-04   2.02794e-04 DIIS/ADIIS
   @DF-RKS iter   5: -2574.50812762724127   -1.49232e-03   1.24549e-05 DIIS
   @DF-RKS iter   6: -2574.50812953952436   -1.91228e-06   2.09112e-06 DIIS
   @DF-RKS iter   7: -2574.50812979296688   -2.53443e-07   8.50292e-08 DIIS
   @DF-RKS iter   8: -2574.50812978587464    7.09224e-09   7.60311e-09 DIIS
  Energy and wave function converged.


  ==> Post-Iterations <==

   Electrons on quadrature grid:
      Ntotal   =   35.9999990390 ; deviation = -9.610e-07 

    Orbital Energies [Eh]
    ---------------------

    Doubly Occupied:                                                      

       1A   -483.380980     2A    -62.767790     3A    -56.542743  
       4A    -56.539135     5A    -56.539135     6A     -8.893429  
       7A     -6.703934     8A     -6.692824     9A     -6.692824  
      10A     -2.789654    11A     -2.786215    12A     -2.786215  
      13A     -2.777126    14A     -2.777126    15A     -0.912017  
      16A     -0.554578    17A     -0.427393    18A     -0.427393  

    Virtual:                                                              

      19A     -0.141734    20A     -0.019927    21A      0.019256  
      22A      0.029956    23A      0.029958    24A      0.072448  
      25A      0.095815    26A      0.095815    27A      0.139134  
      28A      0.139138    29A      0.201969    30A      0.215357  
      31A      0.215358    32A      0.220242    33A      0.241882  
      34A      0.241887    35A      0.332748    36A      0.435916  
      37A      0.435922    38A      0.437725    39A      0.491744  
      40A      0.491744    41A      0.587072    42A      0.628100  
      43A      0.628102    44A      0.713189    45A      0.768714  
      46A      0.811714    47A      0.824843    48A      0.824852  
      49A      0.841028    50A      0.869120    51A      0.869120  
      52A      0.890991    53A      0.891005    54A      0.926672  
      55A      0.926675    56A      0.934757    57A      0.945296  
      58A      0.945296    59A      0.996029    60A      0.996031  
      61A      1.049775    62A      1.142163    63A      1.142164  
      64A      1.154663    65A      1.227319    66A      1.227321  
      67A      1.288834    68A      1.316542    69A      1.316543  
      70A      1.325953    71A      1.325953    72A      1.366222  
      73A      1.435965    74A      1.435965    75A      1.455504  
      76A      1.629178    77A      1.841267    78A      1.841279  
      79A      1.917203    80A      1.976953    81A      1.976953  
      82A      2.080178    83A      2.154695    84A      2.154696  
      85A      2.304527    86A      2.304528    87A      2.316492  
      88A      2.360247    89A      2.375279    90A      2.375281  
      91A      2.392798    92A      2.454211    93A      2.454213  
      94A      2.550888    95A      2.550896    96A      2.569317  
      97A      2.577273    98A      2.577294    99A      2.593754  
     100A      2.593755   101A      2.606028   102A      2.606029  
     103A      2.631570   104A      2.631916   105A      2.634706  
     106A      2.651694   107A      2.651697   108A      2.731621  
     109A      2.740249   110A      2.740250   111A      2.762934  
     112A      2.762934   113A      2.824504   114A      2.824506  
     115A      2.859864   116A      2.880277   117A      2.880278  
     118A      3.054526   119A      3.148803   120A      3.162217  
     121A      3.162217   122A      3.312613   123A      3.312615  
     124A      3.319052   125A      3.319057   126A      3.425084  
     127A      3.433231   128A      3.433232   129A      3.605929  
     130A      3.611151   131A      3.611151   132A      3.815797  
     133A      3.815797   134A      3.840798   135A      3.840799  
     136A      3.894869   137A      4.060791   138A      4.200961  
     139A      4.249960   140A      4.318761   141A      4.413620  
     142A      4.413626   143A      4.833183   144A      4.833183  
     145A      4.929320   146A      4.929320   147A      4.934864  
     148A      4.934865   149A      4.940265   150A      5.266121  
     151A      5.650689   152A      5.652847   153A      5.877245  
     154A      5.877245   155A      5.933223   156A      5.933230  
     157A      6.196285   158A      6.308260   159A      6.308260  
     160A      6.347787   161A      6.347789   162A      6.439610  
     163A      6.536228   164A      6.536228   165A      6.551008  
     166A      6.658696   167A      6.658697   168A      6.980839  
     169A      7.029931   170A      7.029931   171A      7.251336  
     172A      7.251337   173A      7.283634   174A      7.493018  
     175A      7.531801   176A      7.587053   177A      7.587054  
     178A      7.648819   179A      7.648820   180A      7.780062  
     181A      7.780300   182A      7.832349   183A      7.892835  
     184A      8.033735   185A      8.033736   186A      8.038985  
     187A      8.112783   188A      8.281489   189A      8.281489  
     190A      8.284589   191A      8.366660   192A      8.366661  
     193A      8.471259   194A      8.471260   195A      8.622938  
     196A      8.639797   197A      8.639804   198A      8.670575  
     199A      8.841873   200A      8.864823   201A      8.864827  
     202A      8.870029   203A      8.973015   204A      8.973017  
     205A      9.030458   206A      9.088283   207A      9.191899  
     208A      9.191900   209A      9.286665   210A      9.361658  
     211A      9.582490   212A      9.582492   213A      9.603789  
     214A      9.824979   215A      9.944712   216A      9.944713  
     217A     10.064638   218A     10.064638   219A     10.163302  
     220A     10.545046   221A     10.545048   222A     10.868941  
     223A     10.868943   224A     11.060042   225A     11.283290  
     226A     11.633534   227A     11.633535   228A     12.220792  
     229A     12.220793   230A     12.640224   231A     13.502299  
     232A     13.502299   233A     13.556589   234A     13.717929  
     235A     13.717930   236A     13.822053   237A     14.024809  
     238A     14.139486   239A     14.139486   240A     14.434979  
     241A     14.436224   242A     14.436225   243A     15.909308  
     244A     18.079417   245A     18.079417   246A     25.397274  
     247A     29.036082   248A     70.160262   249A     94.754715  
     250A    318.531260   251A    321.681281   252A   1819.160362  

    Final Occupation by Irrep:
              A 
    DOCC [    18 ]
    NA   [    18 ]
    NB   [    18 ]

  @DF-RKS Final Energy: -2574.50812978587464

   => Energetics <=

    Nuclear Repulsion Energy =             12.2315134985768310
    One-Electron Energy =               -3607.2510870554715439
    Two-Electron Energy =                1089.3930281003147229
    DFT Exchange-Correlation Energy =     -68.8815843292943981
    Empirical Dispersion Energy =           0.0000000000000000
    VV10 Nonlocal Energy =                  0.0000000000000000
    Total Energy =                      -2574.5081297858746439

Computation Completed


Properties will be evaluated at   0.000000,   0.000000,   0.000000 [a0]

Properties computed using the SCF density matrix


 Multipole Moments:

 ------------------------------------------------------------------------------------
     Multipole            Electronic (a.u.)      Nuclear  (a.u.)        Total (a.u.)
 ------------------------------------------------------------------------------------

 L = 1.  Multiply by 2.5417464519 to convert [e a0] to [Debye]
 Dipole X            :          0.0004513           -0.0004424            0.0000088
 Dipole Y            :        -42.0103381           41.6310432           -0.3792949
 Dipole Z            :          0.0000000            0.0000000            0.0000000
 Magnitude           :                                                    0.3792949

 ------------------------------------------------------------------------------------

*** tstop() called on cmpsrv002 at Thu Sep 19 14:25:59 2024
Module time:
	user time   =      19.28 seconds =       0.32 minutes
	system time =       1.31 seconds =       0.02 minutes
	total time  =        139 seconds =       2.32 minutes
Total time:
	user time   =      63.98 seconds =       1.07 minutes
	system time =       5.23 seconds =       0.09 minutes
	total time  =        591 seconds =       9.85 minutes
   => Libint2 <=

    Primary   basis highest AM E, G, H:  6, 6, 3
    Auxiliary basis highest AM E, G, H:  7, 7, 4
    Onebody   basis highest AM E, G, H:  -, -, -
    Solid Harmonics ordering:            Gaussian

*** tstart() called on cmpsrv002
*** at Thu Sep 19 14:25:59 2024

   => Loading Basis Set <=

    Name: THIS_BASIS
    Role: ORBITAL
    Keyword: BASIS
    atoms 1, 4-6 entry H          line    15 file /home/vance/anaconda3/envs/p4env/share/psi4/basis/def2-qzvp.gbs 
    atoms 2      entry BR         line  2253 file /home/vance/anaconda3/envs/p4env/share/psi4/basis/def2-qzvp.gbs 
    atoms 3      entry N          line   242 file /home/vance/anaconda3/envs/p4env/share/psi4/basis/def2-qzvp.gbs 


         ---------------------------------------------------------
                          SAPT(DFT): DFT Monomer B                 
         ---------------------------------------------------------
                                   SCF
               by Justin Turney, Rob Parrish, Andy Simmonett
                          and Daniel G. A. Smith
                              RKS Reference
                        4 Threads,   7629 MiB Core
         ---------------------------------------------------------

  ==> Geometry <==

    Molecular point group: c1
    Full point group: C1

    Geometry (in Angstrom), charge = 0, multiplicity = 1:

       Center              X                  Y                   Z               Mass       
    ------------   -----------------  -----------------  -----------------  -----------------
      Gh(H)           0.000022663468    -0.860208352194     0.000000000000     1.007825032230
      Gh(BR)         -0.000007336532     0.654011647806     0.000000000000    78.918337600000
         N            0.000032663468    -2.917848352194     0.000000000000    14.003074004430
         H           -0.474347336532    -3.270318352194     0.821650000000     1.007825032230
         H           -0.474347336532    -3.270318352194    -0.821650000000     1.007825032230
         H            0.948792663468    -3.270318352194     0.000000000000     1.007825032230

  Running in c1 symmetry.

  Rotational constants: A =      6.19409  B =      0.08995  C =      0.08995 [cm^-1]
  Rotational constants: A = 185694.14444  B =   2696.52969  C =   2696.52968 [MHz]
  Nuclear repulsion =   11.945746185352998

  Charge       = 0
  Multiplicity = 1
  Electrons    = 10
  Nalpha       = 5
  Nbeta        = 5

  ==> Algorithm <==

  SCF Algorithm Type is DF.
  DIIS enabled.
  MOM disabled.
  Fractional occupation disabled.
  Guess Type is SAD.
  Energy threshold   = 1.00e-08
  Density threshold  = 1.00e-08
  Integral threshold = 1.00e-12

  ==> Primary Basis <==

  Basis Set: THIS_BASIS
    Blend: DEF2-QZVP
    Number of shells: 82
    Number of basis functions: 252
    Number of Cartesian functions: 303
    Spherical Harmonics?: true
    Max angular momentum: 4

  ==> DFT Potential <==

   => LibXC <=

    Version 6.2.2
    S. Lehtola, C. Steigemann, M. J.T. Oliveira, and M. A.L. Marques.,  SoftwareX 7, 15 (2018) (10.1016/j.softx.2017.11.002)

   => Composite Functional: PBE0 <= 

    PBE0 Hyb-GGA Exchange-Correlation Functional

    C. Adamo and V. Barone.,  J. Chem. Phys. 110, 6158 (1999) (10.1063/1.478522)
    M. Ernzerhof and G. E. Scuseria.,  J. Chem. Phys. 110, 5029 (1999) (10.1063/1.478401)

    Deriv               =              1
    GGA                 =           TRUE
    Meta                =          FALSE

    Exchange Hybrid     =           TRUE
    MP2 Hybrid          =          FALSE

   => Exchange Functionals <=

    0.7500   Perdew, Burke & Ernzerhof

   => Exact (HF) Exchange <=

    0.2500               HF 

   => Correlation Functionals <=

    1.0000   Perdew, Burke & Ernzerhof

   => LibXC Density Thresholds  <==

    XC_HYB_GGA_XC_PBEH:  1.00E-15 

   => Asymptotic Correction <=

    X Functional        =    XC_GGA_X_LB
    C Functional        =   XC_LDA_C_VWN
    Bulk Shift          =       0.113162
    GRAC Alpha          =       0.500000
    GRAC Beta           =      40.000000

   => Molecular Quadrature <=

    Radial Scheme          =       TREUTLER
    Pruning Scheme         =           NONE
    Nuclear Scheme         =       TREUTLER

    Blocking Scheme        =         OCTREE
    BS radius alpha        =              1
    Pruning alpha          =              1
    Radial Points          =             75
    Spherical Points       =            302
    Total Points           =         130503
    Total Blocks           =           1043
    Max Points             =            256
    Max Functions          =            237
    Weights Tolerance      =       1.00E-15

   => Loading Basis Set <=

    Name: (THIS_BASIS AUX)
    Role: JKFIT
    Keyword: DF_BASIS_SCF
    atoms 1, 4-6 entry H          line    18 file /home/vance/anaconda3/envs/p4env/share/psi4/basis/def2-universal-jkfit.gbs 
    atoms 2      entry BR         line  3124 file /home/vance/anaconda3/envs/p4env/share/psi4/basis/def2-universal-jkfit.gbs 
    atoms 3      entry N          line   258 file /home/vance/anaconda3/envs/p4env/share/psi4/basis/def2-universal-jkfit.gbs 

  ==> Integral Setup <==

  ==> DiskDFJK: Density-Fitted J/K Matrices <==

    J tasked:                  Yes
    K tasked:                  Yes
    wK tasked:                  No
    OpenMP threads:              4
    Integrals threads:           4
    Memory [MiB]:             5014
    Algorithm:                Core
    Integral Cache:           SAVE
    Schwarz Cutoff:          1E-12
    Fitting Condition:       1E-10

   => Auxiliary Basis Set <=

  Basis Set: (THIS_BASIS AUX)
    Blend: DEF2-UNIVERSAL-JKFIT
    Number of shells: 109
    Number of basis functions: 415
    Number of Cartesian functions: 544
    Spherical Harmonics?: true
    Max angular momentum: 5

  Cached 100.0% of DFT collocation blocks in 0.691 [GiB].

  Minimum eigenvalue in the overlap matrix is 1.2622888464E-04.
  Reciprocal condition number of the overlap matrix is 1.5514930256E-05.
    Using symmetric orthogonalization.

  ==> Pre-Iterations <==

  SCF Guess: Superposition of Atomic Densities via on-the-fly atomic UHF (no occupation information).

   -------------------------
    Irrep   Nso     Nmo    
   -------------------------
     A        252     252 
   -------------------------
    Total     252     252
   -------------------------

  ==> Iterations <==

                           Total Energy        Delta E     RMS |[F,P]|

   @DF-RKS iter SAD:   -56.06908189316218   -5.60691e+01   0.00000e+00 
   @DF-RKS iter   1:   -56.28002076868278   -2.10939e-01   3.08541e-03 DIIS/ADIIS
   @DF-RKS iter   2:   -56.02209027595065    2.57930e-01   4.03866e-03 DIIS/ADIIS
   @DF-RKS iter   3:   -56.51871431439378   -4.96624e-01   2.14090e-04 DIIS/ADIIS
   @DF-RKS iter   4:   -56.52016626691110   -1.45195e-03   1.85584e-05 DIIS
   @DF-RKS iter   5:   -56.52017327401567   -7.00710e-06   4.94127e-06 DIIS
   @DF-RKS iter   6:   -56.52017333189805   -5.78824e-08   1.93199e-07 DIIS
   @DF-RKS iter   7:   -56.52017329103747    4.08606e-08   2.50112e-08 DIIS
   @DF-RKS iter   8:   -56.52017328103887    9.99860e-09   2.89765e-09 DIIS
  Energy and wave function converged.


  ==> Post-Iterations <==

   Electrons on quadrature grid:
      Ntotal   =    9.9999967989 ; deviation = -3.201e-06 

    Orbital Energies [Eh]
    ---------------------

    Doubly Occupied:                                                      

       1A    -14.471508     2A     -0.987085     3A     -0.590845  
       4A     -0.590845     5A     -0.391507  

    Virtual:                                                              

       6A     -0.084420     7A     -0.015554     8A     -0.015553  
       9A      0.009175    10A      0.077524    11A      0.077527  
      12A      0.102144    13A      0.134185    14A      0.134188  
      15A      0.138988    16A      0.245896    17A      0.268757  
      18A      0.271905    19A      0.271908    20A      0.306256  
      21A      0.306257    22A      0.348084    23A      0.487393  
      24A      0.551490    25A      0.551490    26A      0.593370  
      27A      0.593373    28A      0.614601    29A      0.633069  
      30A      0.644616    31A      0.644633    32A      0.689357  
      33A      0.693047    34A      0.693056    35A      0.738591  
      36A      0.738595    37A      0.746217    38A      0.815196  
      39A      0.815201    40A      0.846419    41A      0.910592  
      42A      0.910598    43A      0.968958    44A      1.036794  
      45A      1.036795    46A      1.061031    47A      1.076318  
      48A      1.115934    49A      1.115935    50A      1.182129  
      51A      1.337201    52A      1.337228    53A      1.348842  
      54A      1.348857    55A      1.394101    56A      1.521597  
      57A      1.521599    58A      1.605306    59A      1.648496  
      60A      1.648498    61A      1.785180    62A      1.785180  
      63A      1.860945    64A      1.916620    65A      1.962829  
      66A      1.962835    67A      2.013232    68A      2.040738  
      69A      2.048462    70A      2.109225    71A      2.109227  
      72A      2.144458    73A      2.144460    74A      2.229183  
      75A      2.229186    76A      2.280634    77A      2.280635  
      78A      2.317062    79A      2.317062    80A      2.347383  
      81A      2.351478    82A      2.351482    83A      2.370500  
      84A      2.370507    85A      2.422538    86A      2.514115  
      87A      2.527036    88A      2.527039    89A      2.578364  
      90A      2.656846    91A      2.718835    92A      2.718835  
      93A      2.748930    94A      2.748932    95A      2.790590  
      96A      2.832402    97A      2.832412    98A      2.893034  
      99A      3.008133   100A      3.048656   101A      3.048659  
     102A      3.156016   103A      3.156017   104A      3.172716  
     105A      3.330285   106A      3.479893   107A      3.479920  
     108A      3.488769   109A      3.488770   110A      3.541974  
     111A      3.541978   112A      3.653781   113A      3.665183  
     114A      3.665184   115A      3.730968   116A      3.790430  
     117A      3.944430   118A      3.944440   119A      4.156642  
     120A      4.174905   121A      4.174905   122A      4.304972  
     123A      4.304972   124A      4.408333   125A      4.408339  
     126A      4.416239   127A      4.416253   128A      4.427567  
     129A      4.490806   130A      4.490806   131A      4.528358  
     132A      4.555030   133A      4.555030   134A      4.700457  
     135A      4.943233   136A      4.943234   137A      5.164447  
     138A      5.443199   139A      5.717849   140A      5.717860  
     141A      5.831686   142A      5.831687   143A      5.892445  
     144A      5.907531   145A      5.907535   146A      5.941940  
     147A      6.177201   148A      6.178414   149A      6.286574  
     150A      6.435224   151A      6.459667   152A      6.459675  
     153A      6.505655   154A      6.505665   155A      6.616249  
     156A      6.616260   157A      6.721372   158A      6.721373  
     159A      6.821677   160A      6.859562   161A      6.859564  
     162A      6.862793   163A      6.878416   164A      6.878418  
     165A      7.078350   166A      7.142091   167A      7.142094  
     168A      7.211562   169A      7.211574   170A      7.217146  
     171A      7.360642   172A      7.485151   173A      7.485155  
     174A      7.494618   175A      7.557652   176A      7.557666  
     177A      7.598412   178A      7.702326   179A      7.702341  
     180A      7.819039   181A      7.848083   182A      7.848098  
     183A      7.938034   184A      7.973229   185A      7.973234  
     186A      8.050422   187A      8.108472   188A      8.157587  
     189A      8.184993   190A      8.184995   191A      8.328343  
     192A      8.383523   193A      8.383535   194A      8.515000  
     195A      8.515005   196A      8.548017   197A      8.671519  
     198A      8.671628   199A      8.754280   200A      8.820885  
     201A      8.820886   202A      9.018352   203A      9.018358  
     204A      9.029256   205A      9.193882   206A      9.193882  
     207A      9.375285   208A      9.375286   209A      9.518549  
     210A      9.588266   211A      9.588268   212A      9.773078  
     213A      9.823140   214A      9.965578   215A      9.965583  
     216A     10.060598   217A     10.707911   218A     10.865843  
     219A     10.865843   220A     11.033391   221A     11.105227  
     222A     11.105228   223A     11.377647   224A     11.528160  
     225A     11.562398   226A     11.562399   227A     11.728096  
     228A     11.728100   229A     11.894682   230A     12.850932  
     231A     14.254035   232A     14.254041   233A     15.097322  
     234A     28.602664   235A     28.602664   236A     28.830029  
     237A     29.159522   238A     35.159707   239A     35.159707  
     240A     35.320318   241A     35.320318   242A     35.916974  
     243A     38.278386   244A     64.476030   245A    141.397105  
     246A    164.911360   247A    164.911360   248A    165.252348  
     249A    197.766911   250A    325.038591   251A    874.297490  
     252A   3948.298085  

    Final Occupation by Irrep:
              A 
    DOCC [     5 ]
    NA   [     5 ]
    NB   [     5 ]

  @DF-RKS Final Energy:   -56.52017328103887

   => Energetics <=

    Nuclear Repulsion Energy =             11.9457461853529985
    One-Electron Energy =                 -99.6873846116145614
    Two-Electron Energy =                  37.2645326920668651
    DFT Exchange-Correlation Energy =      -6.0430675468441803
    Empirical Dispersion Energy =           0.0000000000000000
    VV10 Nonlocal Energy =                  0.0000000000000000
    Total Energy =                        -56.5201732810388719

Computation Completed


Properties will be evaluated at   0.000000,   0.000000,   0.000000 [a0]

Properties computed using the SCF density matrix


 Multipole Moments:

 ------------------------------------------------------------------------------------
     Multipole            Electronic (a.u.)      Nuclear  (a.u.)        Total (a.u.)
 ------------------------------------------------------------------------------------

 L = 1.  Multiply by 2.5417464519 to convert [e a0] to [Debye]
 Dipole X            :         -0.0006114            0.0006173            0.0000059
 Dipole Y            :         56.5595981          -57.1375579           -0.5779598
 Dipole Z            :          0.0000000            0.0000000            0.0000000
 Magnitude           :                                                    0.5779598

 ------------------------------------------------------------------------------------

*** tstop() called on cmpsrv002 at Thu Sep 19 14:27:36 2024
Module time:
	user time   =      20.68 seconds =       0.34 minutes
	system time =       0.96 seconds =       0.02 minutes
	total time  =         97 seconds =       1.62 minutes
Total time:
	user time   =      84.26 seconds =       1.40 minutes
	system time =       6.13 seconds =       0.10 minutes
	total time  =        693 seconds =      11.55 minutes

         ---------------------------------------------------------
               SAPT(DFT): Intermolecular Interaction Segment       

                   by Daniel G. A. Smith and Rob Parrish           
         ---------------------------------------------------------

  ==> Algorithm <==

   SAPT DFT Functional             PBE0
   Monomer A GRAC Shift        0.106591
   Monomer B GRAC Shift        0.113162
   Delta HF                        True
   JK Algorithm                      DF

  ==> Preparing SAPT Data Cache <== 

  ==> DiskDFJK: Density-Fitted J/K Matrices <==

    J tasked:                  Yes
    K tasked:                  Yes
    wK tasked:                  No
    OpenMP threads:              4
    Integrals threads:           4
    Memory [MiB]:             5014
    Algorithm:                Core
    Integral Cache:           SAVE
    Schwarz Cutoff:          1E-12
    Fitting Condition:       1E-10

   => Auxiliary Basis Set <=

  Basis Set: (THIS_BASIS AUX)
    Blend: DEF2-UNIVERSAL-JKFIT
    Number of shells: 109
    Number of basis functions: 415
    Number of Cartesian functions: 544
    Spherical Harmonics?: true
    Max angular momentum: 5


  ==> E10 Electostatics <== 

    Elst10,r                        -16.99176767 [mEh]

  ==> E10 Exchange <== 

    Exch10(S^2)                      18.16344805 [mEh]
    Exch10                           18.46314127 [mEh]

  ==> E20 Induction <== 

   => Uncoupled Induction <= 

    Ind20,u (A<-B)                   -3.22877932 [mEh]
    Ind20,u (A->B)                   -6.67951913 [mEh]
    Ind20,u                          -9.90829846 [mEh]
    Exch-Ind20,u (A<-B)               1.35294214 [mEh]
    Exch-Ind20,u (A->B)               4.06148803 [mEh]
    Exch-Ind20,u                      5.41443017 [mEh]
    Exch-Ind20,u (A<-B) (S^inf)       1.39755015 [mEh]
    Exch-Ind20,u (A->B) (S^inf)       4.23143835 [mEh]
    Exch-Ind20,u (S^inf)              5.62898850 [mEh]

   => Coupled Induction <= 

   ---------------------------------------------------
              SAPT Coupled Induction Solver           
   ---------------------------------------------------
    Maxiter             =          20
    Convergence         =   1.000E-06
   ---------------------------------------------------
     Iter       (A<-B)           (B->A)      Time [s]
   ---------------------------------------------------
    Guess    3.250310e-01     1.109391e-01          5
        1    5.400926e-02     4.244848e-02          9
        2    2.119659e-02     1.515300e-02         14
        3    2.446220e-03     1.288411e-03         19
        4    4.754821e-04     1.108564e-04         23
        5    3.742743e-05     5.757746e-06         28
        6    3.980965e-06     5.660645e-07*        31
        7    2.396580e-07*    5.660645e-07*        33
   ---------------------------------------------------

    Ind20,r (A<-B)                   -2.84685343 [mEh]
    Ind20,r (A->B)                   -7.14120812 [mEh]
    Ind20,r                          -9.98806155 [mEh]
    Exch-Ind20,r (A<-B)               1.54010921 [mEh]
    Exch-Ind20,r (A->B)               4.50624238 [mEh]
    Exch-Ind20,r                      6.04635159 [mEh]
    Exch-Ind20,r (A<-B) (S^inf)       1.59211126 [mEh]
    Exch-Ind20,r (A->B) (S^inf)       4.69728615 [mEh]
    Exch-Ind20,r (S^inf)              6.28939741 [mEh]
   => Loading Basis Set <=

    Name: (THIS_BASIS AUX)
    Role: RIFIT
    Keyword: DF_BASIS_MP2
    atoms 1, 4-6 entry H          line    23 file /home/vance/anaconda3/envs/p4env/share/psi4/basis/def2-qzvp-ri.gbs 
    atoms 2      entry BR         line  2543 file /home/vance/anaconda3/envs/p4env/share/psi4/basis/def2-qzvp-ri.gbs 
    atoms 3      entry N          line   337 file /home/vance/anaconda3/envs/p4env/share/psi4/basis/def2-qzvp-ri.gbs 



  ==> E20 Dispersion (CHF FDDS) <== 

   Legendre Points:          10
   Lambda Shift:          0.300
   Fxc Kernal:             ALDA
   (P|Fxc|Q) Thresh:  1.000e-06
  DFHelper Memory: AOs need 0.439 GiB; user supplied 5.960 GiB. 
  Using in-core AOs.

  ==> DFHelper <==
    NBF:                             252
    NAux:                            961
    Schwarz Cutoff:                1E-12
    Mask sparsity (%):                 9
    DFH Avail. Memory [GiB]:       5.960
    OpenMP threads:                    4
    Algorithm:                    DIRECT
    AO Core:                        True
    MO Core:                       False
    Hold Metric:                   False
    Metric Power:                  0.000
    Fitting Condition:             1E-12
    Q Shell Max:                      13


  DFHelper Memory: AOs need 0.482 GiB; user supplied 5.960 GiB. 
  Using in-core AOs.


   => Time Integration <= 

       Omega       Weight       Disp20,u         Disp20   time [s]
   2.269e+01    6.667e-02      8.090e-05      7.549e-05         13
   4.147e+00    1.495e-01      1.655e-03      1.415e-03         18
   1.572e+00    2.191e-01      5.853e-03      4.749e-03         23
   7.589e-01    2.693e-01      1.098e-02      8.022e-03         27
   4.049e-01    2.955e-01      1.308e-02      8.986e-03         33
   2.223e-01    2.955e-01      1.118e-02      7.361e-03         39
   1.186e-01    2.693e-01      7.863e-03      5.057e-03         45
   5.727e-02    2.191e-01      4.965e-03      3.164e-03         48
   2.170e-02    1.495e-01      2.794e-03      1.776e-03         50
   3.966e-03    6.667e-02      1.116e-03      7.089e-04         52

    Disp20,u                         -9.48053805 [mEh]
    Disp20                           -6.57520960 [mEh]

  ==> E20 Dispersion (MP2) <== 


    Disp20 (MP2)                     -9.46936315 [mEh]
    Exch-Disp20,u                     1.79393865 [mEh]
    Scaling Scheme                    FIXED
    Scaling Factor                    0.770
    Est. Exch-Disp20,r                1.38133276 [mEh]

   SAPT(DFT) Results
  ---------------------------------------------------------------------------------------------------------
    Electrostatics                  -16.99176767 [mEh]    -10.66249519 [kcal/mol]    -44.61187987 [kJ/mol]
      Elst1,r                       -16.99176767 [mEh]    -10.66249519 [kcal/mol]    -44.61187987 [kJ/mol]

    Exchange                         18.46314127 [mEh]     11.58579606 [kcal/mol]     48.47497072 [kJ/mol]
      Exch1                          18.46314127 [mEh]     11.58579606 [kcal/mol]     48.47497072 [kJ/mol]
      Exch1(S^2)                     18.16344805 [mEh]     11.39773573 [kcal/mol]     47.68812628 [kJ/mol]

    Induction                        -8.95872838 [mEh]     -5.62168693 [kcal/mol]    -23.52113813 [kJ/mol]
      Ind2,r                         -9.98806155 [mEh]     -6.26760325 [kcal/mol]    -26.22365198 [kJ/mol]
      Exch-Ind2,r                     6.04635159 [mEh]      3.79414290 [kcal/mol]     15.87469391 [kJ/mol]
      Induction (A<-B)               -1.30674421 [mEh]     -0.81999437 [kcal/mol]     -3.43085646 [kJ/mol]
      Induction (A->B)               -2.63496574 [mEh]     -1.65346597 [kcal/mol]     -6.91810161 [kJ/mol]
      delta HF,r (2)                 -5.01701842 [mEh]     -3.14822659 [kcal/mol]    -13.17218006 [kJ/mol]

    Dispersion                       -5.19387684 [mEh]     -3.25920692 [kcal/mol]    -13.63652176 [kJ/mol]
      Disp2,r                        -6.57520960 [mEh]     -4.12600631 [kcal/mol]    -17.26321042 [kJ/mol]
      Disp2,u                        -9.46936315 [mEh]     -5.94211509 [kcal/mol]    -24.86180954 [kJ/mol]
      Est. Exch-Disp2,r               1.38133276 [mEh]      0.86679939 [kcal/mol]      3.62668866 [kJ/mol]
      Exch-Disp2,u                    1.79393865 [mEh]      1.12571350 [kcal/mol]      4.70998527 [kJ/mol]

    Total SAPT(DFT)                 -12.68123162 [mEh]     -7.95759298 [kcal/mol]    -33.29456904 [kJ/mol]
  ---------------------------------------------------------------------------------------------------------

*** tstop() called on cmpsrv002 at Thu Sep 19 15:22:40 2024
Module time:
	user time   =     402.76 seconds =       6.71 minutes
	system time =      34.69 seconds =       0.58 minutes
	total time  =       3401 seconds =      56.68 minutes
Total time:
	user time   =     466.34 seconds =       7.77 minutes
	system time =      39.86 seconds =       0.66 minutes
	total time  =       3997 seconds =      66.62 minutes

    Psi4 stopped on: Thursday, 19 September 2024 03:22PM
    Psi4 wall time for execution: 1:06:37.13

*** Psi4 exiting successfully. Buy a developer a beer!
