
    -----------------------------------------------------------------------
          Psi4: An Open-Source Ab Initio Electronic Structure Package
                               Psi4 1.9.1 release

                         Git: Rev {} zzzzzzz 


    D. G. A. Smith, L. A. Burns, A. C. Simmonett, R. M. Parrish,
    M. C. Schieber, R. Galvelis, P. Kraus, H. Kruse, R. Di Remigio,
    A. Alenaizan, A. M. James, S. Lehtola, J. P. Misiewicz, M. Scheurer,
    R. A. Shaw, J. B. Schriber, Y. Xie, Z. L. Glick, D. A. Sirianni,
    J. S. O'Brien, J. M. Waldrop, A. Kumar, E. G. Hohenstein,
    B. P. Pritchard, B. R. Brooks, H. F. Schaefer III, A. Yu. Sokolov,
    K. Patkowski, A. E. DePrince III, U. Bozkaya, R. A. King,
    F. A. Evangelista, J. M. Turney, T. D. Crawford, C. D. Sherrill,
    J. Chem. Phys. 152(18) 184108 (2020). https://doi.org/10.1063/5.0006002

                            Additional Code Authors
    E. T. Seidl, C. L. Janssen, E. F. Valeev, M. L. Leininger,
    J. F. Gonthier, R. M. Richard, H. R. McAlexander, M. Saitow, X. Wang,
    P. Verma, M. H. Lechner, A. Jiang, S. Behnle, A. G. Heide,
    M. F. Herbst, and D. L. Poole

             Previous Authors, Complete List of Code Contributors,
                       and Citations for Specific Modules
    https://github.com/psi4/psi4/blob/master/codemeta.json
    https://github.com/psi4/psi4/graphs/contributors
    http://psicode.org/psi4manual/master/introduction.html#citing-psifour

    -----------------------------------------------------------------------


    Psi4 started on: Thursday, 19 September 2024 02:16PM

    Process ID: 605871
    Host:       cmpsrv002
    PSIDATADIR: /home/vance/anaconda3/envs/p4env/share/psi4
    Memory:     500.0 MiB
    Threads:    8
    
  ==> Input File <==

--------------------------------------------------------------------------
#charge=0 charge_a=0 charge_b=0 selection_a=1-2 selection_b=3-6 scaling=0.85 benchmark_Eint=-8.203 benchmark_unit=kcal/mol group=XH-N
set_num_threads(4)
memory 8 GB
basis this_basis {
    assign    def2-qzvp
}

molecule {
     0 1
    --
     0 1
     H        0.00002       -0.93248        0.00000
    Br       -0.00001        0.58174        0.00000
    --
     0 1
     N        0.00002       -2.33168        0.00000
     H       -0.47435       -2.68414        0.82165
     H       -0.47435       -2.68414       -0.82165
     H        0.94878       -2.68415        0.00000
}

set {
    sapt_dft_functional     PBE0
    scf_type                DF
    freeze_core             true
    sapt_dft_grac_shift_a    0.106591
    sapt_dft_grac_shift_b    0.113162
    sapt_dft_do_hybrid      true
    do_ind_exch_sinf        true
    do_disp_exch_sinf       true
}

nrg = energy('sapt(DFT)')
--------------------------------------------------------------------------
  Threads set to 4 by Python driver.

  Memory set to   7.451 GiB by Python driver.

Scratch directory: /scratch2/vance/psi4/

*** tstart() called on cmpsrv002
*** at Thu Sep 19 14:16:09 2024

  SAPT does not make use of molecular symmetry, further calculations in C1 point group.

         ---------------------------------------------------------
                            SAPT(DFT) Procedure                    

                           by Daniel G. A. Smith                   
         ---------------------------------------------------------

Warning! The default value of SAPT_DFT_EXCH_DISP_SCALE_SCHEME has changed from DISP to FIXED. Please be careful comparing results with earlier versions. 

  ==> Algorithm <==

   SAPT DFT Functional             PBE0
   Monomer A GRAC Shift        0.106591
   Monomer B GRAC Shift        0.113162
   Delta HF                        True
   JK Algorithm                      DF

   Required computations:
     HF  (Dimer)
     HF  (Monomer A)
     HF  (Monomer B)
     DFT (Monomer A)
     DFT (Monomer B)

   => Libint2 <=

    Primary   basis highest AM E, G, H:  6, 6, 3
    Auxiliary basis highest AM E, G, H:  7, 7, 4
    Onebody   basis highest AM E, G, H:  -, -, -
    Solid Harmonics ordering:            Gaussian

*** tstart() called on cmpsrv002
*** at Thu Sep 19 14:16:09 2024

   => Loading Basis Set <=

    Name: THIS_BASIS
    Role: ORBITAL
    Keyword: BASIS
    atoms 1, 4-6 entry H          line    15 file /home/vance/anaconda3/envs/p4env/share/psi4/basis/def2-qzvp.gbs 
    atoms 2      entry BR         line  2253 file /home/vance/anaconda3/envs/p4env/share/psi4/basis/def2-qzvp.gbs 
    atoms 3      entry N          line   242 file /home/vance/anaconda3/envs/p4env/share/psi4/basis/def2-qzvp.gbs 


         ---------------------------------------------------------
                         SAPT(DFT): delta HF Dimer                 
         ---------------------------------------------------------
                                   SCF
               by Justin Turney, Rob Parrish, Andy Simmonett
                          and Daniel G. A. Smith
                              RHF Reference
                        4 Threads,   7629 MiB Core
         ---------------------------------------------------------

  ==> Geometry <==

    Molecular point group: c1
    Full point group: Cs

    Geometry (in Angstrom), charge = 0, multiplicity = 1:

       Center              X                  Y                   Z               Mass       
    ------------   -----------------  -----------------  -----------------  -----------------
         H            0.000024211738    -0.975841849661     0.000000000000     1.007825032230
         BR          -0.000005788262     0.538378150339     0.000000000000    78.918337600000
         N            0.000024211738    -2.375041849661     0.000000000000    14.003074004430
         H           -0.474345788262    -2.727501849661     0.821650000000     1.007825032230
         H           -0.474345788262    -2.727501849661    -0.821650000000     1.007825032230
         H            0.948784211738    -2.727511849661     0.000000000000     1.007825032230

  Running in c1 symmetry.

  Rotational constants: A =      6.19413  B =      0.13308  C =      0.13308 [cm^-1]
  Rotational constants: A = 185695.44928  B =   3989.52741  C =   3989.52684 [MHz]
  Nuclear repulsion =   88.459959689867304

  Charge       = 0
  Multiplicity = 1
  Electrons    = 46
  Nalpha       = 23
  Nbeta        = 23

  ==> Algorithm <==

  SCF Algorithm Type is DF.
  DIIS enabled.
  MOM disabled.
  Fractional occupation disabled.
  Guess Type is SAD.
  Energy threshold   = 1.00e-08
  Density threshold  = 1.00e-08
  Integral threshold = 1.00e-12

  ==> Primary Basis <==

  Basis Set: THIS_BASIS
    Blend: DEF2-QZVP
    Number of shells: 82
    Number of basis functions: 252
    Number of Cartesian functions: 303
    Spherical Harmonics?: true
    Max angular momentum: 4

   => Loading Basis Set <=

    Name: (THIS_BASIS AUX)
    Role: JKFIT
    Keyword: DF_BASIS_SCF
    atoms 1, 4-6 entry H          line    18 file /home/vance/anaconda3/envs/p4env/share/psi4/basis/def2-universal-jkfit.gbs 
    atoms 2      entry BR         line  3124 file /home/vance/anaconda3/envs/p4env/share/psi4/basis/def2-universal-jkfit.gbs 
    atoms 3      entry N          line   258 file /home/vance/anaconda3/envs/p4env/share/psi4/basis/def2-universal-jkfit.gbs 

  ==> Integral Setup <==

  ==> DiskDFJK: Density-Fitted J/K Matrices <==

    J tasked:                  Yes
    K tasked:                  Yes
    wK tasked:                  No
    OpenMP threads:              4
    Integrals threads:           4
    Memory [MiB]:             5722
    Algorithm:                Core
    Integral Cache:           SAVE
    Schwarz Cutoff:          1E-12
    Fitting Condition:       1E-10

   => Auxiliary Basis Set <=

  Basis Set: (THIS_BASIS AUX)
    Blend: DEF2-UNIVERSAL-JKFIT
    Number of shells: 109
    Number of basis functions: 415
    Number of Cartesian functions: 544
    Spherical Harmonics?: true
    Max angular momentum: 5

  Minimum eigenvalue in the overlap matrix is 1.0216190284E-04.
  Reciprocal condition number of the overlap matrix is 1.1605581414E-05.
    Using symmetric orthogonalization.

  ==> Pre-Iterations <==

  SCF Guess: Superposition of Atomic Densities via on-the-fly atomic UHF (no occupation information).

   -------------------------
    Irrep   Nso     Nmo    
   -------------------------
     A        252     252 
   -------------------------
    Total     252     252
   -------------------------

  ==> Iterations <==

                           Total Energy        Delta E     RMS |[F,P]|

   @DF-RHF iter SAD: -2627.08136877905417   -2.62708e+03   0.00000e+00 
   @DF-RHF iter   1: -2628.90141349267378   -1.82004e+00   7.06528e-03 DIIS/ADIIS
   @DF-RHF iter   2: -2629.14925976513996   -2.47846e-01   4.68486e-03 DIIS/ADIIS
   @DF-RHF iter   3: -2629.27290173560459   -1.23642e-01   1.69156e-04 DIIS/ADIIS
   @DF-RHF iter   4: -2629.27382402281273   -9.22287e-04   5.45734e-05 DIIS
   @DF-RHF iter   5: -2629.27395326754686   -1.29245e-04   1.78567e-05 DIIS
   @DF-RHF iter   6: -2629.27396821199090   -1.49444e-05   5.55453e-06 DIIS
   @DF-RHF iter   7: -2629.27396975286592   -1.54088e-06   1.06133e-06 DIIS
   @DF-RHF iter   8: -2629.27396985926316   -1.06397e-07   3.91787e-07 DIIS
   @DF-RHF iter   9: -2629.27396987151360   -1.22504e-08   7.90696e-08 DIIS
   @DF-RHF iter  10: -2629.27396987209613   -5.82531e-10   1.22561e-08 DIIS
   @DF-RHF iter  11: -2629.27396987210841   -1.22782e-11   2.64560e-09 DIIS
  Energy and wave function converged.


  ==> Post-Iterations <==

    Orbital Energies [Eh]
    ---------------------

    Doubly Occupied:                                                      

       1A   -489.953152     2A    -65.094393     3A    -58.449259  
       4A    -58.448843     5A    -58.448843     6A    -15.618450  
       7A     -9.767625     8A     -7.377094     9A     -7.374201  
      10A     -7.374201    11A     -3.119500    12A     -3.117661  
      13A     -3.117661    14A     -3.114333    15A     -3.114333  
      16A     -1.230682    17A     -0.958714    18A     -0.711107  
      19A     -0.711100    20A     -0.633942    21A     -0.399086  
      22A     -0.369993    23A     -0.369993  

    Virtual:                                                              

      24A      0.073891    25A      0.129086    26A      0.129087  
      27A      0.191579    28A      0.229041    29A      0.260466  
      30A      0.260467    31A      0.319476    32A      0.319476  
      33A      0.334470    34A      0.393178    35A      0.437042  
      36A      0.437045    37A      0.454166    38A      0.465908  
      39A      0.465910    40A      0.528395    41A      0.528396  
      42A      0.601040    43A      0.601040    44A      0.604137  
      45A      0.693195    46A      0.817017    47A      0.817018  
      48A      0.817638    49A      0.831420    50A      0.904089  
      51A      0.904091    52A      0.908408    53A      1.006854  
      54A      1.006857    55A      1.043589    56A      1.078822  
      57A      1.078823    58A      1.158896    59A      1.245708  
      60A      1.254017    61A      1.254019    62A      1.264268  
      63A      1.272028    64A      1.272028    65A      1.292954  
      66A      1.320150    67A      1.320150    68A      1.328979  
      69A      1.377076    70A      1.377076    71A      1.434371  
      72A      1.575724    73A      1.643983    74A      1.643984  
      75A      1.720770    76A      1.762509    77A      1.762509  
      78A      1.838317    79A      1.838319    80A      1.858665  
      81A      1.911262    82A      1.911266    83A      2.183155  
      84A      2.183156    85A      2.213483    86A      2.282378  
      87A      2.286435    88A      2.286438    89A      2.328820  
      90A      2.430279    91A      2.451459    92A      2.451461  
      93A      2.512386    94A      2.512391    95A      2.548794  
      96A      2.548796    97A      2.605700    98A      2.623127  
      99A      2.623128   100A      2.697615   101A      2.715298  
     102A      2.715305   103A      2.849832   104A      2.878385  
     105A      2.878387   106A      2.883682   107A      3.037250  
     108A      3.037250   109A      3.057810   110A      3.058115  
     111A      3.071573   112A      3.071573   113A      3.092151  
     114A      3.092155   115A      3.092791   116A      3.129014  
     117A      3.133283   118A      3.151541   119A      3.151541  
     120A      3.157674   121A      3.171387   122A      3.171394  
     123A      3.172542   124A      3.370319   125A      3.441566  
     126A      3.441566   127A      3.522402   128A      3.522402  
     129A      3.527691   130A      3.692301   131A      3.737545  
     132A      3.737549   133A      3.907262   134A      3.907272  
     135A      3.962474   136A      4.090633   137A      4.092530  
     138A      4.204794   139A      4.204803   140A      4.326019  
     141A      4.326672   142A      4.326687   143A      4.505945  
     144A      4.505947   145A      4.595364   146A      4.600820  
     147A      4.600827   148A      4.915771   149A      5.430458  
     150A      5.430483   151A      5.520115   152A      5.520116  
     153A      5.562511   154A      5.699321   155A      5.699322  
     156A      5.998333   157A      6.093085   158A      6.105068  
     159A      6.142196   160A      6.142196   161A      6.218243  
     162A      6.218251   163A      6.258688   164A      6.313280  
     165A      6.313307   166A      6.530838   167A      6.530855  
     168A      6.591421   169A      6.719185   170A      6.824338  
     171A      7.029024   172A      7.029029   173A      7.077132  
     174A      7.077134   175A      7.216911   176A      7.371945  
     177A      7.389120   178A      7.389134   179A      7.506667  
     180A      7.562157   181A      7.562157   182A      7.614449  
     183A      7.614460   184A      7.651185   185A      7.683983  
     186A      7.683984   187A      7.957169   188A      7.975606  
     189A      7.975611   190A      8.060154   191A      8.075862  
     192A      8.075865   193A      8.230092   194A      8.305051  
     195A      8.305060   196A      8.370276   197A      8.370278  
     198A      8.373110   199A      8.458521   200A      8.500117  
     201A      8.500127   202A      8.533827   203A      8.604215  
     204A      8.643555   205A      8.643568   206A      8.675008  
     207A      8.778553   208A      8.857744   209A      8.857767  
     210A      8.951774   211A      8.995055   212A      8.995068  
     213A      9.137193   214A      9.137204   215A      9.138650  
     216A      9.273996   217A      9.274004   218A      9.534205  
     219A      9.681823   220A      9.681830   221A      9.969053  
     222A     10.088168   223A     10.088185   224A     10.178356  
     225A     10.178370   226A     10.234124   227A     10.337631  
     228A     10.502696   229A     10.502705   230A     10.708723  
     231A     11.531368   232A     11.671408   233A     11.671411  
     234A     11.762700   235A     12.082984   236A     12.083001  
     237A     12.172703   238A     12.279900   239A     12.279941  
     240A     12.402610   241A     14.517503   242A     14.517503  
     243A     14.834437   244A     14.834438   245A     15.008773  
     246A     15.757646   247A     30.383102   248A     39.498358  
     249A     96.883144   250A    200.660185   251A    325.399182  
     252A   1828.451482  

    Final Occupation by Irrep:
              A 
    DOCC [    23 ]
    NA   [    23 ]
    NB   [    23 ]

  @DF-RHF Final Energy: -2629.27396987210841

   => Energetics <=

    Nuclear Repulsion Energy =             88.4599596898673042
    One-Electron Energy =               -3837.7195214122489233
    Two-Electron Energy =                1119.9855918502730674
    Total Energy =                      -2629.2739698721084096

Computation Completed


Properties will be evaluated at   0.000000,   0.000000,   0.000000 [a0]

Properties computed using the SCF density matrix


 Multipole Moments:

 ------------------------------------------------------------------------------------
     Multipole            Electronic (a.u.)      Nuclear  (a.u.)        Total (a.u.)
 ------------------------------------------------------------------------------------

 L = 1.  Multiply by 2.5417464519 to convert [e a0] to [Debye]
 Dipole X            :         -0.0001279            0.0001582            0.0000303
 Dipole Y            :         10.6456609          -13.1154837           -2.4698228
 Dipole Z            :          0.0000000            0.0000000            0.0000000
 Magnitude           :                                                    2.4698228

 ------------------------------------------------------------------------------------

*** tstop() called on cmpsrv002 at Thu Sep 19 14:19:32 2024
Module time:
	user time   =      14.10 seconds =       0.23 minutes
	system time =       1.63 seconds =       0.03 minutes
	total time  =        203 seconds =       3.38 minutes
Total time:
	user time   =      14.11 seconds =       0.24 minutes
	system time =       1.63 seconds =       0.03 minutes
	total time  =        203 seconds =       3.38 minutes
   => Libint2 <=

    Primary   basis highest AM E, G, H:  6, 6, 3
    Auxiliary basis highest AM E, G, H:  7, 7, 4
    Onebody   basis highest AM E, G, H:  -, -, -
    Solid Harmonics ordering:            Gaussian

*** tstart() called on cmpsrv002
*** at Thu Sep 19 14:19:32 2024

   => Loading Basis Set <=

    Name: THIS_BASIS
    Role: ORBITAL
    Keyword: BASIS
    atoms 1, 4-6 entry H          line    15 file /home/vance/anaconda3/envs/p4env/share/psi4/basis/def2-qzvp.gbs 
    atoms 2      entry BR         line  2253 file /home/vance/anaconda3/envs/p4env/share/psi4/basis/def2-qzvp.gbs 
    atoms 3      entry N          line   242 file /home/vance/anaconda3/envs/p4env/share/psi4/basis/def2-qzvp.gbs 


         ---------------------------------------------------------
                       SAPT(DFT): delta HF Monomer A               
         ---------------------------------------------------------
                                   SCF
               by Justin Turney, Rob Parrish, Andy Simmonett
                          and Daniel G. A. Smith
                              RHF Reference
                        4 Threads,   7629 MiB Core
         ---------------------------------------------------------

  ==> Geometry <==

    Molecular point group: c1
    Full point group: Cs

    Geometry (in Angstrom), charge = 0, multiplicity = 1:

       Center              X                  Y                   Z               Mass       
    ------------   -----------------  -----------------  -----------------  -----------------
         H            0.000024211738    -0.975841849661     0.000000000000     1.007825032230
         BR          -0.000005788262     0.538378150339     0.000000000000    78.918337600000
      Gh(N)           0.000024211738    -2.375041849661     0.000000000000    14.003074004430
      Gh(H)          -0.474345788262    -2.727501849661     0.821650000000     1.007825032230
      Gh(H)          -0.474345788262    -2.727501849661    -0.821650000000     1.007825032230
      Gh(H)           0.948784211738    -2.727511849661     0.000000000000     1.007825032230

  Running in c1 symmetry.

  Rotational constants: A =      6.19413  B =      0.13308  C =      0.13308 [cm^-1]
  Rotational constants: A = 185695.44928  B =   3989.52741  C =   3989.52684 [MHz]
  Nuclear repulsion =   12.231513498576831

  Charge       = 0
  Multiplicity = 1
  Electrons    = 36
  Nalpha       = 18
  Nbeta        = 18

  ==> Algorithm <==

  SCF Algorithm Type is DF.
  DIIS enabled.
  MOM disabled.
  Fractional occupation disabled.
  Guess Type is SAD.
  Energy threshold   = 1.00e-08
  Density threshold  = 1.00e-08
  Integral threshold = 1.00e-12

  ==> Primary Basis <==

  Basis Set: THIS_BASIS
    Blend: DEF2-QZVP
    Number of shells: 82
    Number of basis functions: 252
    Number of Cartesian functions: 303
    Spherical Harmonics?: true
    Max angular momentum: 4

   => Loading Basis Set <=

    Name: (THIS_BASIS AUX)
    Role: JKFIT
    Keyword: DF_BASIS_SCF
    atoms 1, 4-6 entry H          line    18 file /home/vance/anaconda3/envs/p4env/share/psi4/basis/def2-universal-jkfit.gbs 
    atoms 2      entry BR         line  3124 file /home/vance/anaconda3/envs/p4env/share/psi4/basis/def2-universal-jkfit.gbs 
    atoms 3      entry N          line   258 file /home/vance/anaconda3/envs/p4env/share/psi4/basis/def2-universal-jkfit.gbs 

  ==> Integral Setup <==

  ==> DiskDFJK: Density-Fitted J/K Matrices <==

    J tasked:                  Yes
    K tasked:                  Yes
    wK tasked:                  No
    OpenMP threads:              4
    Integrals threads:           4
    Memory [MiB]:             5722
    Algorithm:                Core
    Integral Cache:           SAVE
    Schwarz Cutoff:          1E-12
    Fitting Condition:       1E-10

   => Auxiliary Basis Set <=

  Basis Set: (THIS_BASIS AUX)
    Blend: DEF2-UNIVERSAL-JKFIT
    Number of shells: 109
    Number of basis functions: 415
    Number of Cartesian functions: 544
    Spherical Harmonics?: true
    Max angular momentum: 5

  Minimum eigenvalue in the overlap matrix is 1.0216190284E-04.
  Reciprocal condition number of the overlap matrix is 1.1605581414E-05.
    Using symmetric orthogonalization.

  ==> Pre-Iterations <==

  SCF Guess: Superposition of Atomic Densities via on-the-fly atomic UHF (no occupation information).

   -------------------------
    Irrep   Nso     Nmo    
   -------------------------
     A        252     252 
   -------------------------
    Total     252     252
   -------------------------

  ==> Iterations <==

                           Total Energy        Delta E     RMS |[F,P]|

   @DF-RHF iter SAD: -2571.10345629413541   -2.57110e+03   0.00000e+00 
   @DF-RHF iter   1: -2572.74127997982805   -1.63782e+00   6.82848e-03 DIIS/ADIIS
   @DF-RHF iter   2: -2572.93134346051102   -1.90063e-01   4.54962e-03 DIIS/ADIIS
   @DF-RHF iter   3: -2573.04566389999172   -1.14320e-01   1.02089e-04 DIIS/ADIIS
   @DF-RHF iter   4: -2573.04616374113402   -4.99841e-04   3.62864e-05 DIIS
   @DF-RHF iter   5: -2573.04624656881788   -8.28277e-05   1.04629e-05 DIIS
   @DF-RHF iter   6: -2573.04625674689123   -1.01781e-05   2.15178e-06 DIIS
   @DF-RHF iter   7: -2573.04625705610988   -3.09219e-07   4.07044e-07 DIIS
   @DF-RHF iter   8: -2573.04625706650131   -1.03914e-08   5.72227e-08 DIIS
   @DF-RHF iter   9: -2573.04625706679371   -2.92403e-10   7.73468e-09 DIIS
  Energy and wave function converged.


  ==> Post-Iterations <==

    Orbital Energies [Eh]
    ---------------------

    Doubly Occupied:                                                      

       1A   -490.040294     2A    -65.179832     3A    -58.535410  
       4A    -58.533953     5A    -58.533953     6A     -9.851737  
       7A     -7.463161     8A     -7.456598     9A     -7.456598  
      10A     -3.207080    11A     -3.203336    12A     -3.203336  
      13A     -3.194736    14A     -3.194736    15A     -1.020416  
      16A     -0.564633    17A     -0.433500    18A     -0.433500  

    Virtual:                                                              

      19A      0.054383    20A      0.127463    21A      0.136881  
      22A      0.136881    23A      0.203732    24A      0.253035  
      25A      0.280584    26A      0.280585    27A      0.292473  
      28A      0.292473    29A      0.323913    30A      0.432388  
      31A      0.460599    32A      0.460599    33A      0.479994  
      34A      0.479995    35A      0.530671    36A      0.530672  
      37A      0.555344    38A      0.671604    39A      0.671606  
      40A      0.697312    41A      0.768897    42A      0.868026  
      43A      0.869992    44A      0.869994    45A      0.938243  
      46A      0.955123    47A      0.962319    48A      0.962321  
      49A      1.041527    50A      1.069645    51A      1.069646  
      52A      1.167770    53A      1.167771    54A      1.196970  
      55A      1.211335    56A      1.219936    57A      1.220796  
      58A      1.220796    59A      1.260081    60A      1.260081  
      61A      1.346804    62A      1.346808    63A      1.384902  
      64A      1.424311    65A      1.444252    66A      1.444254  
      67A      1.462453    68A      1.655431    69A      1.675772  
      70A      1.675772    71A      1.702007    72A      1.702008  
      73A      1.758319    74A      1.844721    75A      1.844723  
      76A      2.010550    77A      2.148509    78A      2.148514  
      79A      2.256508    80A      2.297009    81A      2.297013  
      82A      2.372830    83A      2.372834    84A      2.441731  
      85A      2.461359    86A      2.526375    87A      2.526376  
      88A      2.616160    89A      2.616163    90A      2.621845  
      91A      2.673580    92A      2.693363    93A      2.693365  
      94A      2.767162    95A      2.811016    96A      2.811016  
      97A      2.862371    98A      2.862372    99A      2.924208  
     100A      2.945238   101A      2.945240   102A      2.991496  
     103A      2.992361   104A      3.006729   105A      3.006730  
     106A      3.010830   107A      3.010830   108A      3.026617  
     109A      3.064208   110A      3.066245   111A      3.086185  
     112A      3.086187   113A      3.181384   114A      3.267712  
     115A      3.280602   116A      3.280606   117A      3.360456  
     118A      3.360460   119A      3.417718   120A      3.481210  
     121A      3.524082   122A      3.524083   123A      3.612122  
     124A      3.649832   125A      3.649837   126A      3.787961  
     127A      3.787965   128A      3.815124   129A      3.974439  
     130A      3.974440   131A      4.052756   132A      4.225376  
     133A      4.262210   134A      4.262213   135A      4.349398  
     136A      4.411991   137A      4.510283   138A      4.510299  
     139A      4.557880   140A      4.557892   141A      4.562917  
     142A      5.004378   143A      5.054384   144A      5.054400  
     145A      5.446888   146A      5.446888   147A      5.512234  
     148A      5.660995   149A      5.660998   150A      6.002486  
     151A      6.002494   152A      6.081872   153A      6.086919  
     154A      6.129669   155A      6.339769   156A      6.339771  
     157A      6.482844   158A      6.482848   159A      6.546334  
     160A      6.674367   161A      6.674391   162A      6.784960  
     163A      6.784972   164A      6.890731   165A      7.254328  
     166A      7.254352   167A      7.287303   168A      7.287309  
     169A      7.340613   170A      7.388938   171A      7.602089  
     172A      7.654170   173A      7.734819   174A      7.734823  
     175A      7.880813   176A      7.880822   177A      8.007203  
     178A      8.092783   179A      8.092789   180A      8.109782  
     181A      8.164172   182A      8.284790   183A      8.284803  
     184A      8.388015   185A      8.413702   186A      8.413702  
     187A      8.563908   188A      8.663291   189A      8.663295  
     190A      8.692510   191A      8.692511   192A      8.786648  
     193A      8.810794   194A      8.830289   195A      8.830291  
     196A      8.935172   197A      8.935181   198A      8.980832  
     199A      9.076121   200A      9.076129   201A      9.101517  
     202A      9.134384   203A      9.323191   204A      9.383658  
     205A      9.383675   206A      9.492152   207A      9.537460  
     208A      9.537471   209A      9.649992   210A      9.882792  
     211A      9.882822   212A      9.895480   213A     10.044377  
     214A     10.150560   215A     10.150582   216A     10.263121  
     217A     10.436835   218A     10.436845   219A     10.952505  
     220A     10.952513   221A     11.070636   222A     11.070659  
     223A     11.181849   224A     11.402902   225A     11.846254  
     226A     11.846282   227A     12.108518   228A     12.360523  
     229A     12.360563   230A     12.946140   231A     13.672345  
     232A     13.868008   233A     13.868024   234A     14.184912  
     235A     14.299225   236A     14.299239   237A     14.440881  
     238A     14.440881   239A     14.593243   240A     14.593266  
     241A     14.799290   242A     14.947371   243A     16.295957  
     244A     18.287289   245A     18.287314   246A     25.620650  
     247A     30.304545   248A     70.396177   249A     96.799267  
     250A    318.827272   251A    325.316299   252A   1828.364630  

    Final Occupation by Irrep:
              A 
    DOCC [    18 ]
    NA   [    18 ]
    NB   [    18 ]

  @DF-RHF Final Energy: -2573.04625706679371

   => Energetics <=

    Nuclear Repulsion Energy =             12.2315134985768310
    One-Electron Energy =               -3607.5419249101755668
    Two-Electron Energy =                1022.2641543448048651
    Total Energy =                      -2573.0462570667937143

Computation Completed


Properties will be evaluated at   0.000000,   0.000000,   0.000000 [a0]

Properties computed using the SCF density matrix


 Multipole Moments:

 ------------------------------------------------------------------------------------
     Multipole            Electronic (a.u.)      Nuclear  (a.u.)        Total (a.u.)
 ------------------------------------------------------------------------------------

 L = 1.  Multiply by 2.5417464519 to convert [e a0] to [Debye]
 Dipole X            :          0.0003452           -0.0003371            0.0000081
 Dipole Y            :        -34.1688193           33.7644801           -0.4043392
 Dipole Z            :          0.0000000            0.0000000            0.0000000
 Magnitude           :                                                    0.4043392

 ------------------------------------------------------------------------------------

*** tstop() called on cmpsrv002 at Thu Sep 19 14:21:28 2024
Module time:
	user time   =      11.12 seconds =       0.19 minutes
	system time =       1.06 seconds =       0.02 minutes
	total time  =        116 seconds =       1.93 minutes
Total time:
	user time   =      25.23 seconds =       0.42 minutes
	system time =       2.69 seconds =       0.04 minutes
	total time  =        319 seconds =       5.32 minutes
   => Libint2 <=

    Primary   basis highest AM E, G, H:  6, 6, 3
    Auxiliary basis highest AM E, G, H:  7, 7, 4
    Onebody   basis highest AM E, G, H:  -, -, -
    Solid Harmonics ordering:            Gaussian

*** tstart() called on cmpsrv002
*** at Thu Sep 19 14:21:28 2024

   => Loading Basis Set <=

    Name: THIS_BASIS
    Role: ORBITAL
    Keyword: BASIS
    atoms 1, 4-6 entry H          line    15 file /home/vance/anaconda3/envs/p4env/share/psi4/basis/def2-qzvp.gbs 
    atoms 2      entry BR         line  2253 file /home/vance/anaconda3/envs/p4env/share/psi4/basis/def2-qzvp.gbs 
    atoms 3      entry N          line   242 file /home/vance/anaconda3/envs/p4env/share/psi4/basis/def2-qzvp.gbs 


         ---------------------------------------------------------
                       SAPT(DFT): delta HF Monomer B               
         ---------------------------------------------------------
                                   SCF
               by Justin Turney, Rob Parrish, Andy Simmonett
                          and Daniel G. A. Smith
                              RHF Reference
                        4 Threads,   7629 MiB Core
         ---------------------------------------------------------

  ==> Geometry <==

    Molecular point group: c1
    Full point group: Cs

    Geometry (in Angstrom), charge = 0, multiplicity = 1:

       Center              X                  Y                   Z               Mass       
    ------------   -----------------  -----------------  -----------------  -----------------
      Gh(H)           0.000024211738    -0.975841849661     0.000000000000     1.007825032230
      Gh(BR)         -0.000005788262     0.538378150339     0.000000000000    78.918337600000
         N            0.000024211738    -2.375041849661     0.000000000000    14.003074004430
         H           -0.474345788262    -2.727501849661     0.821650000000     1.007825032230
         H           -0.474345788262    -2.727501849661    -0.821650000000     1.007825032230
         H            0.948784211738    -2.727511849661     0.000000000000     1.007825032230

  Running in c1 symmetry.

  Rotational constants: A =      6.19413  B =      0.13308  C =      0.13308 [cm^-1]
  Rotational constants: A = 185695.44928  B =   3989.52741  C =   3989.52684 [MHz]
  Nuclear repulsion =   11.945808662698695

  Charge       = 0
  Multiplicity = 1
  Electrons    = 10
  Nalpha       = 5
  Nbeta        = 5

  ==> Algorithm <==

  SCF Algorithm Type is DF.
  DIIS enabled.
  MOM disabled.
  Fractional occupation disabled.
  Guess Type is SAD.
  Energy threshold   = 1.00e-08
  Density threshold  = 1.00e-08
  Integral threshold = 1.00e-12

  ==> Primary Basis <==

  Basis Set: THIS_BASIS
    Blend: DEF2-QZVP
    Number of shells: 82
    Number of basis functions: 252
    Number of Cartesian functions: 303
    Spherical Harmonics?: true
    Max angular momentum: 4

   => Loading Basis Set <=

    Name: (THIS_BASIS AUX)
    Role: JKFIT
    Keyword: DF_BASIS_SCF
    atoms 1, 4-6 entry H          line    18 file /home/vance/anaconda3/envs/p4env/share/psi4/basis/def2-universal-jkfit.gbs 
    atoms 2      entry BR         line  3124 file /home/vance/anaconda3/envs/p4env/share/psi4/basis/def2-universal-jkfit.gbs 
    atoms 3      entry N          line   258 file /home/vance/anaconda3/envs/p4env/share/psi4/basis/def2-universal-jkfit.gbs 

  ==> Integral Setup <==

  ==> DiskDFJK: Density-Fitted J/K Matrices <==

    J tasked:                  Yes
    K tasked:                  Yes
    wK tasked:                  No
    OpenMP threads:              4
    Integrals threads:           4
    Memory [MiB]:             5722
    Algorithm:                Core
    Integral Cache:           SAVE
    Schwarz Cutoff:          1E-12
    Fitting Condition:       1E-10

   => Auxiliary Basis Set <=

  Basis Set: (THIS_BASIS AUX)
    Blend: DEF2-UNIVERSAL-JKFIT
    Number of shells: 109
    Number of basis functions: 415
    Number of Cartesian functions: 544
    Spherical Harmonics?: true
    Max angular momentum: 5

  Minimum eigenvalue in the overlap matrix is 1.0216190284E-04.
  Reciprocal condition number of the overlap matrix is 1.1605581414E-05.
    Using symmetric orthogonalization.

  ==> Pre-Iterations <==

  SCF Guess: Superposition of Atomic Densities via on-the-fly atomic UHF (no occupation information).

   -------------------------
    Irrep   Nso     Nmo    
   -------------------------
     A        252     252 
   -------------------------
    Total     252     252
   -------------------------

  ==> Iterations <==

                           Total Energy        Delta E     RMS |[F,P]|

   @DF-RHF iter SAD:   -55.65138739695615   -5.56514e+01   0.00000e+00 
   @DF-RHF iter   1:   -56.13002903157282   -4.78642e-01   1.82274e-03 DIIS/ADIIS
   @DF-RHF iter   2:   -56.19691518562486   -6.68862e-02   1.05189e-03 DIIS/ADIIS
   @DF-RHF iter   3:   -56.22383683569105   -2.69217e-02   9.74810e-05 DIIS
   @DF-RHF iter   4:   -56.22446501725624   -6.28182e-04   1.81133e-05 DIIS
   @DF-RHF iter   5:   -56.22448552989639   -2.05126e-05   3.37615e-06 DIIS
   @DF-RHF iter   6:   -56.22448674139491   -1.21150e-06   8.59455e-07 DIIS
   @DF-RHF iter   7:   -56.22448682424131   -8.28464e-08   1.90122e-07 DIIS
   @DF-RHF iter   8:   -56.22448682857144   -4.33013e-09   3.00450e-08 DIIS
   @DF-RHF iter   9:   -56.22448682867897   -1.07526e-10   8.36914e-09 DIIS
  Energy and wave function converged.


  ==> Post-Iterations <==

    Orbital Energies [Eh]
    ---------------------

    Doubly Occupied:                                                      

       1A    -15.538530     2A     -1.138735     3A     -0.631296  
       4A     -0.631290     5A     -0.424063  

    Virtual:                                                              

       6A      0.100268     7A      0.120692     8A      0.154780  
       9A      0.154780    10A      0.201518    11A      0.201519  
      12A      0.241320    13A      0.319343    14A      0.324114  
      15A      0.324115    16A      0.386697    17A      0.504267  
      18A      0.521039    19A      0.521042    20A      0.539669  
      21A      0.539673    22A      0.594767    23A      0.684398  
      24A      0.684398    25A      0.690452    26A      0.743758  
      27A      0.743758    28A      0.791368    29A      0.791370  
      30A      0.818560    31A      0.868146    32A      0.871203  
      33A      0.896787    34A      0.896789    35A      0.950058  
      36A      1.015332    37A      1.015335    38A      1.073990  
      39A      1.073994    40A      1.074380    41A      1.197857  
      42A      1.197858    43A      1.300345    44A      1.316541  
      45A      1.354717    46A      1.354721    47A      1.400337  
      48A      1.452640    49A      1.453076    50A      1.466196  
      51A      1.466198    52A      1.477947    53A      1.493369  
      54A      1.493371    55A      1.681393    56A      1.812752  
      57A      1.812753    58A      1.897854    59A      1.897855  
      60A      1.915377    61A      1.937975    62A      2.004626  
      63A      2.004629    64A      2.237054    65A      2.294885  
      66A      2.294889    67A      2.342392    68A      2.395500  
      69A      2.396437    70A      2.396442    71A      2.451759  
      72A      2.451760    73A      2.466272    74A      2.477753  
      75A      2.477754    76A      2.549435    77A      2.549436  
      78A      2.613205    79A      2.613211    80A      2.680653  
      81A      2.683471    82A      2.683476    83A      2.761884  
      84A      2.821941    85A      2.863336    86A      2.863342  
      87A      2.921747    88A      2.921750    89A      2.967808  
      90A      3.124452    91A      3.125873    92A      3.125875  
      93A      3.200839    94A      3.200849    95A      3.231899  
      96A      3.254999    97A      3.255001    98A      3.302433  
      99A      3.409134   100A      3.439122   101A      3.439123  
     102A      3.592366   103A      3.593277   104A      3.594484  
     105A      3.594484   106A      3.601597   107A      3.815011  
     108A      3.874284   109A      3.874285   110A      3.964295  
     111A      3.964307   112A      4.048080   113A      4.048086  
     114A      4.141495   115A      4.180398   116A      4.405078  
     117A      4.405099   118A      4.425679   119A      4.515877  
     120A      4.516863   121A      4.533201   122A      4.533201  
     123A      4.534087   124A      4.534088   125A      4.578730  
     126A      4.612755   127A      4.612755   128A      4.707125  
     129A      4.707131   130A      4.718210   131A      4.759447  
     132A      4.999074   133A      4.999075   134A      5.465242  
     135A      5.524040   136A      5.524065   137A      5.553780  
     138A      5.924599   139A      6.228678   140A      6.228681  
     141A      6.289095   142A      6.289104   143A      6.324980  
     144A      6.399555   145A      6.402813   146A      6.402837  
     147A      6.407516   148A      6.548167   149A      6.695069  
     150A      6.695081   151A      6.791553   152A      6.943360  
     153A      6.943361   154A      6.963119   155A      7.043366  
     156A      7.043370   157A      7.173875   158A      7.173879  
     159A      7.290801   160A      7.340497   161A      7.423615  
     162A      7.423630   163A      7.494171   164A      7.494177  
     165A      7.638878   166A      7.638879   167A      7.685503  
     168A      7.700326   169A      7.700338   170A      7.745353  
     171A      7.911631   172A      7.960093   173A      7.960103  
     174A      8.109818   175A      8.129252   176A      8.129255  
     177A      8.268052   178A      8.268059   179A      8.304807  
     180A      8.467163   181A      8.470459   182A      8.470459  
     183A      8.534672   184A      8.540612   185A      8.619803  
     186A      8.619814   187A      8.682071   188A      8.740977  
     189A      8.876299   190A      8.876301   191A      8.977102  
     192A      8.977121   193A      9.039295   194A      9.039296  
     195A      9.056460   196A      9.151763   197A      9.198340  
     198A      9.198341   199A      9.377494   200A      9.377513  
     201A      9.792434   202A      9.792438   203A      9.803615  
     204A      9.832659   205A      9.832661   206A     10.106553  
     207A     10.211391   208A     10.211407   209A     10.285378  
     210A     10.316282   211A     10.366197   212A     10.366212  
     213A     10.601243   214A     10.601252   215A     10.603512  
     216A     10.994623   217A     10.994623   218A     11.164941  
     219A     11.630069   220A     11.642765   221A     11.751792  
     222A     11.751795   223A     12.102646   224A     12.162229  
     225A     12.162247   226A     12.364384   227A     12.364426  
     228A     12.476158   229A     12.478142   230A     13.126823  
     231A     14.911522   232A     14.911524   233A     15.846240  
     234A     28.725125   235A     28.725125   236A     29.053336  
     237A     29.348145   238A     35.274753   239A     35.274753  
     240A     35.487159   241A     35.487160   242A     36.286870  
     243A     39.586147   244A     64.673420   245A    141.592573  
     246A    165.038026   247A    165.038026   248A    165.528310  
     249A    200.740079   250A    325.235039   251A    874.511303  
     252A   3948.687014  

    Final Occupation by Irrep:
              A 
    DOCC [     5 ]
    NA   [     5 ]
    NB   [     5 ]

  @DF-RHF Final Energy:   -56.22448682867897

   => Energetics <=

    Nuclear Repulsion Energy =             11.9458086626986955
    One-Electron Energy =                 -99.6127604078747311
    Two-Electron Energy =                  31.4424649164970660
    Total Energy =                        -56.2244868286789696

Computation Completed


Properties will be evaluated at   0.000000,   0.000000,   0.000000 [a0]

Properties computed using the SCF density matrix


 Multipole Moments:

 ------------------------------------------------------------------------------------
     Multipole            Electronic (a.u.)      Nuclear  (a.u.)        Total (a.u.)
 ------------------------------------------------------------------------------------

 L = 1.  Multiply by 2.5417464519 to convert [e a0] to [Debye]
 Dipole X            :         -0.0004924            0.0004953            0.0000029
 Dipole Y            :         46.2751570          -46.8799638           -0.6048068
 Dipole Z            :          0.0000000            0.0000000            0.0000000
 Magnitude           :                                                    0.6048068

 ------------------------------------------------------------------------------------

*** tstop() called on cmpsrv002 at Thu Sep 19 14:23:58 2024
Module time:
	user time   =      11.63 seconds =       0.19 minutes
	system time =       0.83 seconds =       0.01 minutes
	total time  =        150 seconds =       2.50 minutes
Total time:
	user time   =      36.87 seconds =       0.61 minutes
	system time =       3.52 seconds =       0.06 minutes
	total time  =        469 seconds =       7.82 minutes

         ---------------------------------------------------------
                        SAPT(DFT): delta HF Segment                

                   by Daniel G. A. Smith and Rob Parrish           
         ---------------------------------------------------------


  ==> Preparing SAPT Data Cache <== 

  ==> DiskDFJK: Density-Fitted J/K Matrices <==

    J tasked:                  Yes
    K tasked:                  Yes
    wK tasked:                  No
    OpenMP threads:              4
    Integrals threads:           4
    Memory [MiB]:             5722
    Algorithm:                Core
    Integral Cache:           SAVE
    Schwarz Cutoff:          1E-12
    Fitting Condition:       1E-10

   => Auxiliary Basis Set <=

  Basis Set: (THIS_BASIS AUX)
    Blend: DEF2-UNIVERSAL-JKFIT
    Number of shells: 109
    Number of basis functions: 415
    Number of Cartesian functions: 544
    Spherical Harmonics?: true
    Max angular momentum: 5


  ==> E10 Electostatics <== 

    Elst10,r                        -68.98587115 [mEh]

  ==> E10 Exchange <== 

    Exch10(S^2)                     117.47121644 [mEh]
    Exch10                          128.40608448 [mEh]

  ==> E20 Induction <== 

   => Uncoupled Induction <= 

    Ind20,u (A<-B)                  -27.17373814 [mEh]
    Ind20,u (A->B)                  -39.11572139 [mEh]
    Ind20,u                         -66.28945953 [mEh]
    Exch-Ind20,u (A<-B)              19.90188463 [mEh]
    Exch-Ind20,u (A->B)              18.37681019 [mEh]
    Exch-Ind20,u                     38.27869482 [mEh]
    Exch-Ind20,u (A<-B) (S^inf)      24.11945457 [mEh]
    Exch-Ind20,u (A->B) (S^inf)      22.62350799 [mEh]
    Exch-Ind20,u (S^inf)             46.74296256 [mEh]

   => Coupled Induction <= 

   ---------------------------------------------------
              SAPT Coupled Induction Solver           
   ---------------------------------------------------
    Maxiter             =          20
    Convergence         =   1.000E-06
   ---------------------------------------------------
     Iter       (A<-B)           (B->A)      Time [s]
   ---------------------------------------------------
    Guess    1.180651e-01     1.324055e-01          0
        1    3.669600e-02     4.009986e-02          0
        2    7.578949e-03     1.133329e-02          0
        3    3.261545e-03     2.978120e-03          0
        4    9.765924e-04     5.882146e-04          0
        5    1.415648e-04     1.013431e-04          0
        6    3.524741e-05     1.542086e-05          0
        7    5.014593e-06     1.832631e-06          1
        8    4.735649e-07*    4.727551e-07*         1
   ---------------------------------------------------

    Ind20,r (A<-B)                  -32.35715845 [mEh]
    Ind20,r (A->B)                  -48.65013814 [mEh]
    Ind20,r                         -81.00729660 [mEh]
    Exch-Ind20,r (A<-B)              24.58847252 [mEh]
    Exch-Ind20,r (A->B)              24.31512987 [mEh]
    Exch-Ind20,r                     48.90360239 [mEh]
    Exch-Ind20,r (A<-B) (S^inf)      29.94490411 [mEh]
    Exch-Ind20,r (A->B) (S^inf)      30.31771243 [mEh]
    Exch-Ind20,r (S^inf)             60.26261654 [mEh]

   Partial SAPT(HF) Results, to compute Delta HF (dHF)
  ---------------------------------------------------------------------------------------------------------
    Electrostatics                  -68.98587115 [mEh]    -43.28928771 [kcal/mol]   -181.12237976 [kJ/mol]
      Elst10,r                      -68.98587115 [mEh]    -43.28928771 [kcal/mol]   -181.12237976 [kJ/mol]

    Exchange                        128.40608448 [mEh]     80.57603450 [kcal/mol]    337.13012835 [kJ/mol]
      Exch10                        128.40608448 [mEh]     80.57603450 [kcal/mol]    337.13012835 [kJ/mol]
      Exch10(S^2)                   117.47121644 [mEh]     73.71430121 [kcal/mol]    308.42063626 [kJ/mol]

    Induction (no dHF)              -32.10369421 [mEh]    -20.14537226 [kcal/mol]    -84.28823752 [kJ/mol]
      Ind20,r                       -81.00729660 [mEh]    -50.83284606 [kcal/mol]   -212.68462791 [kJ/mol]
      Exch-Ind20,r                   48.90360239 [mEh]     30.68747380 [kcal/mol]    128.39639039 [kJ/mol]
      Induction (A<-B) (no dHF)      -7.76868594 [mEh]     -4.87492402 [kcal/mol]    -20.39668212 [kJ/mol]
      Induction (A->B) (no dHF)     -24.33500827 [mEh]    -15.27044823 [kcal/mol]    -63.89155540 [kJ/mol]

    Subtotal SAPT(HF)                27.31651912 [mEh]     17.14137454 [kcal/mol]     71.71951106 [kJ/mol]
    Total HF                         -3.22597664 [mEh]     -2.02433090 [kcal/mol]     -8.46980049 [kJ/mol]
    Delta HF                        -30.54249575 [mEh]    -19.16570544 [kcal/mol]    -80.18931155 [kJ/mol]
  ---------------------------------------------------------------------------------------------------------
   Partial SAPT(HF) Results, alternate SAPT0-like display
  ---------------------------------------------------------------------------------------------------------
    Induction                       -62.64618996 [mEh]    -39.31107770 [kcal/mol]   -164.47754908 [kJ/mol]
      Ind20,r                       -81.00729660 [mEh]    -50.83284606 [kcal/mol]   -212.68462791 [kJ/mol]
      Exch-Ind20,r                   48.90360239 [mEh]     30.68747380 [kcal/mol]    128.39639039 [kJ/mol]
      delta HF,r (2)                -30.54249575 [mEh]    -19.16570544 [kcal/mol]    -80.18931155 [kJ/mol]
      Induction (A<-B)              -15.15958169 [mEh]     -9.51278113 [kcal/mol]    -39.80147625 [kJ/mol]
      Induction (A->B)              -47.48660827 [mEh]    -29.79829656 [kcal/mol]   -124.67607282 [kJ/mol]
  ---------------------------------------------------------------------------------------------------------
   => Libint2 <=

    Primary   basis highest AM E, G, H:  6, 6, 3
    Auxiliary basis highest AM E, G, H:  7, 7, 4
    Onebody   basis highest AM E, G, H:  -, -, -
    Solid Harmonics ordering:            Gaussian

*** tstart() called on cmpsrv002
*** at Thu Sep 19 14:24:00 2024

   => Loading Basis Set <=

    Name: THIS_BASIS
    Role: ORBITAL
    Keyword: BASIS
    atoms 1, 4-6 entry H          line    15 file /home/vance/anaconda3/envs/p4env/share/psi4/basis/def2-qzvp.gbs 
    atoms 2      entry BR         line  2253 file /home/vance/anaconda3/envs/p4env/share/psi4/basis/def2-qzvp.gbs 
    atoms 3      entry N          line   242 file /home/vance/anaconda3/envs/p4env/share/psi4/basis/def2-qzvp.gbs 


         ---------------------------------------------------------
                          SAPT(DFT): DFT Monomer A                 
         ---------------------------------------------------------
                                   SCF
               by Justin Turney, Rob Parrish, Andy Simmonett
                          and Daniel G. A. Smith
                              RKS Reference
                        4 Threads,   7629 MiB Core
         ---------------------------------------------------------

  ==> Geometry <==

    Molecular point group: c1
    Full point group: Cs

    Geometry (in Angstrom), charge = 0, multiplicity = 1:

       Center              X                  Y                   Z               Mass       
    ------------   -----------------  -----------------  -----------------  -----------------
         H            0.000024211738    -0.975841849661     0.000000000000     1.007825032230
         BR          -0.000005788262     0.538378150339     0.000000000000    78.918337600000
      Gh(N)           0.000024211738    -2.375041849661     0.000000000000    14.003074004430
      Gh(H)          -0.474345788262    -2.727501849661     0.821650000000     1.007825032230
      Gh(H)          -0.474345788262    -2.727501849661    -0.821650000000     1.007825032230
      Gh(H)           0.948784211738    -2.727511849661     0.000000000000     1.007825032230

  Running in c1 symmetry.

  Rotational constants: A =      6.19413  B =      0.13308  C =      0.13308 [cm^-1]
  Rotational constants: A = 185695.44928  B =   3989.52741  C =   3989.52684 [MHz]
  Nuclear repulsion =   12.231513498576831

  Charge       = 0
  Multiplicity = 1
  Electrons    = 36
  Nalpha       = 18
  Nbeta        = 18

  ==> Algorithm <==

  SCF Algorithm Type is DF.
  DIIS enabled.
  MOM disabled.
  Fractional occupation disabled.
  Guess Type is SAD.
  Energy threshold   = 1.00e-08
  Density threshold  = 1.00e-08
  Integral threshold = 1.00e-12

  ==> Primary Basis <==

  Basis Set: THIS_BASIS
    Blend: DEF2-QZVP
    Number of shells: 82
    Number of basis functions: 252
    Number of Cartesian functions: 303
    Spherical Harmonics?: true
    Max angular momentum: 4

  ==> DFT Potential <==

   => LibXC <=

    Version 6.2.2
    S. Lehtola, C. Steigemann, M. J.T. Oliveira, and M. A.L. Marques.,  SoftwareX 7, 15 (2018) (10.1016/j.softx.2017.11.002)

   => Composite Functional: PBE0 <= 

    PBE0 Hyb-GGA Exchange-Correlation Functional

    C. Adamo and V. Barone.,  J. Chem. Phys. 110, 6158 (1999) (10.1063/1.478522)
    M. Ernzerhof and G. E. Scuseria.,  J. Chem. Phys. 110, 5029 (1999) (10.1063/1.478401)

    Deriv               =              1
    GGA                 =           TRUE
    Meta                =          FALSE

    Exchange Hybrid     =           TRUE
    MP2 Hybrid          =          FALSE

   => Exchange Functionals <=

    0.7500   Perdew, Burke & Ernzerhof

   => Exact (HF) Exchange <=

    0.2500               HF 

   => Correlation Functionals <=

    1.0000   Perdew, Burke & Ernzerhof

   => LibXC Density Thresholds  <==

    XC_HYB_GGA_XC_PBEH:  1.00E-15 

   => Asymptotic Correction <=

    X Functional        =    XC_GGA_X_LB
    C Functional        =   XC_LDA_C_VWN
    Bulk Shift          =       0.106591
    GRAC Alpha          =       0.500000
    GRAC Beta           =      40.000000

   => Molecular Quadrature <=

    Radial Scheme          =       TREUTLER
    Pruning Scheme         =           NONE
    Nuclear Scheme         =       TREUTLER

    Blocking Scheme        =         OCTREE
    BS radius alpha        =              1
    Pruning alpha          =              1
    Radial Points          =             75
    Spherical Points       =            302
    Total Points           =         130000
    Total Blocks           =           1029
    Max Points             =            256
    Max Functions          =            241
    Weights Tolerance      =       1.00E-15

   => Loading Basis Set <=

    Name: (THIS_BASIS AUX)
    Role: JKFIT
    Keyword: DF_BASIS_SCF
    atoms 1, 4-6 entry H          line    18 file /home/vance/anaconda3/envs/p4env/share/psi4/basis/def2-universal-jkfit.gbs 
    atoms 2      entry BR         line  3124 file /home/vance/anaconda3/envs/p4env/share/psi4/basis/def2-universal-jkfit.gbs 
    atoms 3      entry N          line   258 file /home/vance/anaconda3/envs/p4env/share/psi4/basis/def2-universal-jkfit.gbs 

  ==> Integral Setup <==

  ==> DiskDFJK: Density-Fitted J/K Matrices <==

    J tasked:                  Yes
    K tasked:                  Yes
    wK tasked:                  No
    OpenMP threads:              4
    Integrals threads:           4
    Memory [MiB]:             4944
    Algorithm:                Core
    Integral Cache:           SAVE
    Schwarz Cutoff:          1E-12
    Fitting Condition:       1E-10

   => Auxiliary Basis Set <=

  Basis Set: (THIS_BASIS AUX)
    Blend: DEF2-UNIVERSAL-JKFIT
    Number of shells: 109
    Number of basis functions: 415
    Number of Cartesian functions: 544
    Spherical Harmonics?: true
    Max angular momentum: 5

  Cached 100.0% of DFT collocation blocks in 0.759 [GiB].

  Minimum eigenvalue in the overlap matrix is 1.0216190284E-04.
  Reciprocal condition number of the overlap matrix is 1.1605581414E-05.
    Using symmetric orthogonalization.

  ==> Pre-Iterations <==

  SCF Guess: Superposition of Atomic Densities via on-the-fly atomic UHF (no occupation information).

   -------------------------
    Irrep   Nso     Nmo    
   -------------------------
     A        252     252 
   -------------------------
    Total     252     252
   -------------------------

  ==> Iterations <==

                           Total Energy        Delta E     RMS |[F,P]|

   @DF-RKS iter SAD: -2572.87175071357706   -2.57287e+03   0.00000e+00 
   @DF-RKS iter   1: -2574.05664679368556   -1.18490e+00   8.58207e-03 ADIIS/DIIS
   @DF-RKS iter   2: -2573.97305516695496    8.35916e-02   9.00781e-03 ADIIS/DIIS
   @DF-RKS iter   3: -2574.50574417333928   -5.32689e-01   2.48115e-04 ADIIS/DIIS
   @DF-RKS iter   4: -2574.50663586659493   -8.91693e-04   2.06516e-04 ADIIS/DIIS
   @DF-RKS iter   5: -2574.50818353822206   -1.54767e-03   1.26870e-05 DIIS
   @DF-RKS iter   6: -2574.50818552394458   -1.98572e-06   2.10661e-06 DIIS
   @DF-RKS iter   7: -2574.50818577433847   -2.50394e-07   9.16470e-08 DIIS
   @DF-RKS iter   8: -2574.50818576678330    7.55517e-09   7.89547e-09 DIIS
  Energy and wave function converged.


  ==> Post-Iterations <==

   Electrons on quadrature grid:
      Ntotal   =   35.9999961156 ; deviation = -3.884e-06 

    Orbital Energies [Eh]
    ---------------------

    Doubly Occupied:                                                      

       1A   -483.380910     2A    -62.767734     3A    -56.542673  
       4A    -56.539079     5A    -56.539079     6A     -8.893456  
       7A     -6.703951     8A     -6.692854     9A     -6.692854  
      10A     -2.789679    11A     -2.786237    12A     -2.786237  
      13A     -2.777156    14A     -2.777156    15A     -0.912033  
      16A     -0.554577    17A     -0.427429    18A     -0.427429  

    Virtual:                                                              

      19A     -0.141784    20A     -0.019592    21A      0.008280  
      22A      0.013048    23A      0.013051    24A      0.084583  
      25A      0.095592    26A      0.095593    27A      0.126886  
      28A      0.126890    29A      0.196235    30A      0.213706  
      31A      0.213706    32A      0.262744    33A      0.265148  
      34A      0.265149    35A      0.342257    36A      0.389182  
      37A      0.389186    38A      0.502516    39A      0.504559  
      40A      0.504559    41A      0.559390    42A      0.664259  
      43A      0.664266    44A      0.705000    45A      0.750326  
      46A      0.784372    47A      0.784379    48A      0.810817  
      49A      0.824612    50A      0.851703    51A      0.851706  
      52A      0.890101    53A      0.891342    54A      0.945367  
      55A      0.945367    56A      0.970651    57A      0.970658  
      58A      1.002823    59A      1.002841    60A      1.039669  
      61A      1.125138    62A      1.174302    63A      1.174306  
      64A      1.201088    65A      1.220530    66A      1.220534  
      67A      1.261565    68A      1.332397    69A      1.332398  
      70A      1.362445    71A      1.362446    72A      1.389913  
      73A      1.457222    74A      1.591767    75A      1.591768  
      76A      1.795602    77A      1.893011    78A      1.893012  
      79A      2.007784    80A      2.065657    81A      2.065662  
      82A      2.119956    83A      2.119964    84A      2.165263  
      85A      2.294977    86A      2.325651    87A      2.363009  
      88A      2.363011    89A      2.381155    90A      2.381160  
      91A      2.470696    92A      2.470699    93A      2.498774  
      94A      2.528049    95A      2.547214    96A      2.547214  
      97A      2.577356    98A      2.577466    99A      2.593701  
     100A      2.593701   101A      2.625236   102A      2.625238  
     103A      2.631168   104A      2.632179   105A      2.694347  
     106A      2.694351   107A      2.743959   108A      2.743959  
     109A      2.746101   110A      2.819044   111A      2.819930  
     112A      2.819938   113A      2.927987   114A      2.966421  
     115A      2.966429   116A      3.043750   117A      3.098093  
     118A      3.098094   119A      3.252581   120A      3.281912  
     121A      3.291244   122A      3.291253   123A      3.308677  
     124A      3.386843   125A      3.386847   126A      3.556215  
     127A      3.556216   128A      3.557435   129A      3.734279  
     130A      3.734285   131A      3.763263   132A      3.837639  
     133A      3.837639   134A      3.936836   135A      4.163507  
     136A      4.188464   137A      4.216677   138A      4.216683  
     139A      4.287058   140A      4.342256   141A      4.342285  
     142A      4.614199   143A      4.838160   144A      4.838161  
     145A      4.886213   146A      4.886230   147A      5.116596  
     148A      5.116598   149A      5.279103   150A      5.648717  
     151A      5.692483   152A      5.710737   153A      5.808838  
     154A      5.808847   155A      6.057770   156A      6.057777  
     157A      6.329356   158A      6.329361   159A      6.399870  
     160A      6.430059   161A      6.430074   162A      6.572528  
     163A      6.572546   164A      6.644253   165A      6.983383  
     166A      6.983393   167A      6.993537   168A      7.097684  
     169A      7.097706   170A      7.236658   171A      7.314742  
     172A      7.454192   173A      7.454196   174A      7.507782  
     175A      7.663638   176A      7.663652   177A      7.786705  
     178A      7.864036   179A      7.867532   180A      7.867624  
     181A      7.949465   182A      7.961363   183A      7.961428  
     184A      8.057060   185A      8.157881   186A      8.180197  
     187A      8.180200   188A      8.445011   189A      8.445012  
     190A      8.499404   191A      8.499406   192A      8.576895  
     193A      8.582864   194A      8.582874   195A      8.629546  
     196A      8.665284   197A      8.665292   198A      8.824658  
     199A      8.825757   200A      8.912800   201A      8.912814  
     202A      8.961308   203A      9.108261   204A      9.178230  
     205A      9.178247   206A      9.336937   207A      9.345874  
     208A      9.366990   209A      9.367000   210A      9.672953  
     211A      9.704488   212A      9.704521   213A      9.831389  
     214A      9.963034   215A      9.963057   216A     10.065371  
     217A     10.259865   218A     10.259876   219A     10.763445  
     220A     10.763452   221A     10.882314   222A     10.882338  
     223A     11.000957   224A     11.100465   225A     11.676243  
     226A     11.676271   227A     11.902251   228A     12.185679  
     229A     12.185719   230A     12.760398   231A     13.503078  
     232A     13.516610   233A     13.516610   234A     13.694517  
     235A     13.694533   236A     13.971972   237A     14.035065  
     238A     14.115923   239A     14.115937   240A     14.417281  
     241A     14.417304   242A     14.630902   243A     16.105885  
     244A     18.112680   245A     18.112705   246A     25.430075  
     247A     29.148638   248A     70.203268   249A     94.860891  
     250A    318.630643   251A    321.788420   252A   1819.349061  

    Final Occupation by Irrep:
              A 
    DOCC [    18 ]
    NA   [    18 ]
    NB   [    18 ]

  @DF-RKS Final Energy: -2574.50818576678330

   => Energetics <=

    Nuclear Repulsion Energy =             12.2315134985768310
    One-Electron Energy =               -3607.2511783662030211
    Two-Electron Energy =                1089.3930584919369267
    DFT Exchange-Correlation Energy =     -68.8815793910944763
    Empirical Dispersion Energy =           0.0000000000000000
    VV10 Nonlocal Energy =                  0.0000000000000000
    Total Energy =                      -2574.5081857667837539

Computation Completed


Properties will be evaluated at   0.000000,   0.000000,   0.000000 [a0]

Properties computed using the SCF density matrix


 Multipole Moments:

 ------------------------------------------------------------------------------------
     Multipole            Electronic (a.u.)      Nuclear  (a.u.)        Total (a.u.)
 ------------------------------------------------------------------------------------

 L = 1.  Multiply by 2.5417464519 to convert [e a0] to [Debye]
 Dipole X            :          0.0003485           -0.0003371            0.0000114
 Dipole Y            :        -34.1384926           33.7644801           -0.3740125
 Dipole Z            :          0.0000000            0.0000000            0.0000000
 Magnitude           :                                                    0.3740125

 ------------------------------------------------------------------------------------

*** tstop() called on cmpsrv002 at Thu Sep 19 14:26:19 2024
Module time:
	user time   =      20.68 seconds =       0.34 minutes
	system time =       1.43 seconds =       0.02 minutes
	total time  =        139 seconds =       2.32 minutes
Total time:
	user time   =      67.39 seconds =       1.12 minutes
	system time =       5.20 seconds =       0.09 minutes
	total time  =        616 seconds =      10.27 minutes
   => Libint2 <=

    Primary   basis highest AM E, G, H:  6, 6, 3
    Auxiliary basis highest AM E, G, H:  7, 7, 4
    Onebody   basis highest AM E, G, H:  -, -, -
    Solid Harmonics ordering:            Gaussian

*** tstart() called on cmpsrv002
*** at Thu Sep 19 14:26:19 2024

   => Loading Basis Set <=

    Name: THIS_BASIS
    Role: ORBITAL
    Keyword: BASIS
    atoms 1, 4-6 entry H          line    15 file /home/vance/anaconda3/envs/p4env/share/psi4/basis/def2-qzvp.gbs 
    atoms 2      entry BR         line  2253 file /home/vance/anaconda3/envs/p4env/share/psi4/basis/def2-qzvp.gbs 
    atoms 3      entry N          line   242 file /home/vance/anaconda3/envs/p4env/share/psi4/basis/def2-qzvp.gbs 


         ---------------------------------------------------------
                          SAPT(DFT): DFT Monomer B                 
         ---------------------------------------------------------
                                   SCF
               by Justin Turney, Rob Parrish, Andy Simmonett
                          and Daniel G. A. Smith
                              RKS Reference
                        4 Threads,   7629 MiB Core
         ---------------------------------------------------------

  ==> Geometry <==

    Molecular point group: c1
    Full point group: Cs

    Geometry (in Angstrom), charge = 0, multiplicity = 1:

       Center              X                  Y                   Z               Mass       
    ------------   -----------------  -----------------  -----------------  -----------------
      Gh(H)           0.000024211738    -0.975841849661     0.000000000000     1.007825032230
      Gh(BR)         -0.000005788262     0.538378150339     0.000000000000    78.918337600000
         N            0.000024211738    -2.375041849661     0.000000000000    14.003074004430
         H           -0.474345788262    -2.727501849661     0.821650000000     1.007825032230
         H           -0.474345788262    -2.727501849661    -0.821650000000     1.007825032230
         H            0.948784211738    -2.727511849661     0.000000000000     1.007825032230

  Running in c1 symmetry.

  Rotational constants: A =      6.19413  B =      0.13308  C =      0.13308 [cm^-1]
  Rotational constants: A = 185695.44928  B =   3989.52741  C =   3989.52684 [MHz]
  Nuclear repulsion =   11.945808662698695

  Charge       = 0
  Multiplicity = 1
  Electrons    = 10
  Nalpha       = 5
  Nbeta        = 5

  ==> Algorithm <==

  SCF Algorithm Type is DF.
  DIIS enabled.
  MOM disabled.
  Fractional occupation disabled.
  Guess Type is SAD.
  Energy threshold   = 1.00e-08
  Density threshold  = 1.00e-08
  Integral threshold = 1.00e-12

  ==> Primary Basis <==

  Basis Set: THIS_BASIS
    Blend: DEF2-QZVP
    Number of shells: 82
    Number of basis functions: 252
    Number of Cartesian functions: 303
    Spherical Harmonics?: true
    Max angular momentum: 4

  ==> DFT Potential <==

   => LibXC <=

    Version 6.2.2
    S. Lehtola, C. Steigemann, M. J.T. Oliveira, and M. A.L. Marques.,  SoftwareX 7, 15 (2018) (10.1016/j.softx.2017.11.002)

   => Composite Functional: PBE0 <= 

    PBE0 Hyb-GGA Exchange-Correlation Functional

    C. Adamo and V. Barone.,  J. Chem. Phys. 110, 6158 (1999) (10.1063/1.478522)
    M. Ernzerhof and G. E. Scuseria.,  J. Chem. Phys. 110, 5029 (1999) (10.1063/1.478401)

    Deriv               =              1
    GGA                 =           TRUE
    Meta                =          FALSE

    Exchange Hybrid     =           TRUE
    MP2 Hybrid          =          FALSE

   => Exchange Functionals <=

    0.7500   Perdew, Burke & Ernzerhof

   => Exact (HF) Exchange <=

    0.2500               HF 

   => Correlation Functionals <=

    1.0000   Perdew, Burke & Ernzerhof

   => LibXC Density Thresholds  <==

    XC_HYB_GGA_XC_PBEH:  1.00E-15 

   => Asymptotic Correction <=

    X Functional        =    XC_GGA_X_LB
    C Functional        =   XC_LDA_C_VWN
    Bulk Shift          =       0.113162
    GRAC Alpha          =       0.500000
    GRAC Beta           =      40.000000

   => Molecular Quadrature <=

    Radial Scheme          =       TREUTLER
    Pruning Scheme         =           NONE
    Nuclear Scheme         =       TREUTLER

    Blocking Scheme        =         OCTREE
    BS radius alpha        =              1
    Pruning alpha          =              1
    Radial Points          =             75
    Spherical Points       =            302
    Total Points           =         130000
    Total Blocks           =           1029
    Max Points             =            256
    Max Functions          =            241
    Weights Tolerance      =       1.00E-15

   => Loading Basis Set <=

    Name: (THIS_BASIS AUX)
    Role: JKFIT
    Keyword: DF_BASIS_SCF
    atoms 1, 4-6 entry H          line    18 file /home/vance/anaconda3/envs/p4env/share/psi4/basis/def2-universal-jkfit.gbs 
    atoms 2      entry BR         line  3124 file /home/vance/anaconda3/envs/p4env/share/psi4/basis/def2-universal-jkfit.gbs 
    atoms 3      entry N          line   258 file /home/vance/anaconda3/envs/p4env/share/psi4/basis/def2-universal-jkfit.gbs 

  ==> Integral Setup <==

  ==> DiskDFJK: Density-Fitted J/K Matrices <==

    J tasked:                  Yes
    K tasked:                  Yes
    wK tasked:                  No
    OpenMP threads:              4
    Integrals threads:           4
    Memory [MiB]:             4944
    Algorithm:                Core
    Integral Cache:           SAVE
    Schwarz Cutoff:          1E-12
    Fitting Condition:       1E-10

   => Auxiliary Basis Set <=

  Basis Set: (THIS_BASIS AUX)
    Blend: DEF2-UNIVERSAL-JKFIT
    Number of shells: 109
    Number of basis functions: 415
    Number of Cartesian functions: 544
    Spherical Harmonics?: true
    Max angular momentum: 5

  Cached 100.0% of DFT collocation blocks in 0.759 [GiB].

  Minimum eigenvalue in the overlap matrix is 1.0216190284E-04.
  Reciprocal condition number of the overlap matrix is 1.1605581414E-05.
    Using symmetric orthogonalization.

  ==> Pre-Iterations <==

  SCF Guess: Superposition of Atomic Densities via on-the-fly atomic UHF (no occupation information).

   -------------------------
    Irrep   Nso     Nmo    
   -------------------------
     A        252     252 
   -------------------------
    Total     252     252
   -------------------------

  ==> Iterations <==

                           Total Energy        Delta E     RMS |[F,P]|

   @DF-RKS iter SAD:   -56.06908638817504   -5.60691e+01   0.00000e+00 
   @DF-RKS iter   1:   -56.28004493311328   -2.10959e-01   3.08542e-03 ADIIS/DIIS
   @DF-RKS iter   2:   -56.01390426660419    2.66141e-01   4.06263e-03 ADIIS/DIIS
   @DF-RKS iter   3:   -56.51869758025381   -5.04793e-01   2.21002e-04 ADIIS/DIIS
   @DF-RKS iter   4:   -56.52025004063613   -1.55246e-03   1.94314e-05 DIIS
   @DF-RKS iter   5:   -56.52025758074208   -7.54011e-06   5.12440e-06 DIIS
   @DF-RKS iter   6:   -56.52025760186315   -2.11210e-08   2.00564e-07 DIIS
   @DF-RKS iter   7:   -56.52025755730561    4.45575e-08   2.52450e-08 DIIS
   @DF-RKS iter   8:   -56.52025754708302    1.02226e-08   3.17750e-09 DIIS
   @DF-RKS iter   9:   -56.52025754700917    7.38538e-11   3.50852e-10 DIIS
  Energy and wave function converged.


  ==> Post-Iterations <==

   Electrons on quadrature grid:
      Ntotal   =    9.9999965955 ; deviation = -3.405e-06 

    Orbital Energies [Eh]
    ---------------------

    Doubly Occupied:                                                      

       1A    -14.471701     2A     -0.987256     3A     -0.591008  
       4A     -0.591003     5A     -0.391720  

    Virtual:                                                              

       6A     -0.084498     7A     -0.015517     8A     -0.015515  
       9A      0.006873    10A      0.069751    11A      0.069756  
      12A      0.106752    13A      0.134503    14A      0.134505  
      15A      0.146294    16A      0.241605    17A      0.264064  
      18A      0.269972    19A      0.269976    20A      0.308430  
      21A      0.308432    22A      0.405013    23A      0.509914  
      24A      0.544443    25A      0.544445    26A      0.594305  
      27A      0.594321    28A      0.614511    29A      0.633402  
      30A      0.633431    31A      0.658518    32A      0.681030  
      33A      0.681038    34A      0.703845    35A      0.731802  
      36A      0.789028    37A      0.789034    38A      0.824085  
      39A      0.824103    40A      0.852666    41A      0.946372  
      42A      0.946375    43A      1.052046    44A      1.057933  
      45A      1.057934    46A      1.072915    47A      1.085322  
      48A      1.212330    49A      1.212330    50A      1.257127  
      51A      1.328621    52A      1.328710    53A      1.331510  
      54A      1.334856    55A      1.463961    56A      1.587490  
      57A      1.587491    58A      1.663533    59A      1.704649  
      60A      1.704652    61A      1.752332    62A      1.778951  
      63A      1.778955    64A      1.985246    65A      1.985248  
      66A      2.013021    67A      2.040416    68A      2.042208  
      69A      2.096159    70A      2.096163    71A      2.188995  
      72A      2.188999    73A      2.246520    74A      2.246527  
      75A      2.272643    76A      2.274004    77A      2.274009  
      78A      2.353470    79A      2.353486    80A      2.353668  
      81A      2.389605    82A      2.389610    83A      2.475311  
      84A      2.520280    85A      2.550103    86A      2.550119  
      87A      2.609084    88A      2.609085    89A      2.647823  
      90A      2.789824    91A      2.789843    92A      2.808623  
      93A      2.867974    94A      2.867981    95A      2.892788  
      96A      2.945720    97A      2.945737    98A      2.994660  
      99A      3.045418   100A      3.120727   101A      3.120735  
     102A      3.253551   103A      3.441227   104A      3.457406  
     105A      3.468465   106A      3.468475   107A      3.471098  
     108A      3.556677   109A      3.556691   110A      3.679453  
     111A      3.679462   112A      3.722588   113A      3.722598  
     114A      3.781285   115A      3.830463   116A      4.007251  
     117A      4.007266   118A      4.067185   119A      4.187634  
     120A      4.187636   121A      4.228369   122A      4.386447  
     123A      4.388002   124A      4.397509   125A      4.397538  
     126A      4.409367   127A      4.409370   128A      4.423973  
     129A      4.500406   130A      4.500406   131A      4.603050  
     132A      4.766155   133A      4.766158   134A      5.037383  
     135A      5.037411   136A      5.194703   137A      5.286462  
     138A      5.655781   139A      5.810954   140A      5.810976  
     141A      5.860825   142A      5.860828   143A      5.891867  
     144A      5.942633   145A      5.942659   146A      6.064386  
     147A      6.110198   148A      6.134841   149A      6.291752  
     150A      6.302252   151A      6.302270   152A      6.533785  
     153A      6.636994   154A      6.636996   155A      6.756150  
     156A      6.756156   157A      6.829948   158A      6.829954  
     159A      6.853192   160A      6.964252   161A      7.054036  
     162A      7.054038   163A      7.129101   164A      7.129111  
     165A      7.173190   166A      7.173193   167A      7.245736  
     168A      7.245758   169A      7.251813   170A      7.365562  
     171A      7.544088   172A      7.550337   173A      7.550348  
     174A      7.616951   175A      7.704107   176A      7.704113  
     177A      7.829439   178A      7.860957   179A      7.860957  
     180A      7.995508   181A      8.010839   182A      8.010852  
     183A      8.073844   184A      8.119065   185A      8.152964  
     186A      8.152966   187A      8.178176   188A      8.299352  
     189A      8.425366   190A      8.425370   191A      8.486704  
     192A      8.486720   193A      8.557119   194A      8.557135  
     195A      8.590900   196A      8.665575   197A      8.841918  
     198A      8.841992   199A      8.943659   200A      8.943665  
     201A      9.275023   202A      9.284078   203A      9.284081  
     204A      9.422451   205A      9.422458   206A      9.543394  
     207A      9.704240   208A      9.704253   209A      9.776346  
     210A      9.882617   211A      9.882624   212A      9.964752  
     213A     10.048937   214A     10.048948   215A     10.073304  
     216A     10.815785   217A     10.859575   218A     10.859575  
     219A     11.054671   220A     11.152956   221A     11.152962  
     222A     11.451875   223A     11.564290   224A     11.588266  
     225A     11.588286   226A     11.787666   227A     11.787710  
     228A     11.902666   229A     12.065619   230A     12.950751  
     231A     14.309325   232A     14.309326   233A     15.209824  
     234A     28.590827   235A     28.590827   236A     28.915773  
     237A     29.212509   238A     35.140792   239A     35.140793  
     240A     35.351187   241A     35.351187   242A     36.147044  
     243A     38.419143   244A     64.538135   245A    141.457362  
     246A    164.903235   247A    164.903235   248A    165.392812  
     249A    197.937224   250A    325.099936   251A    874.375529  
     252A   3948.559890  

    Final Occupation by Irrep:
              A 
    DOCC [     5 ]
    NA   [     5 ]
    NB   [     5 ]

  @DF-RKS Final Energy:   -56.52025754700917

   => Energetics <=

    Nuclear Repulsion Energy =             11.9458086626986955
    One-Electron Energy =                 -99.6859813155046197
    Two-Electron Energy =                  37.2628037326550228
    DFT Exchange-Correlation Energy =      -6.0428886268582680
    Empirical Dispersion Energy =           0.0000000000000000
    VV10 Nonlocal Energy =                  0.0000000000000000
    Total Energy =                        -56.5202575470091659

Computation Completed


Properties will be evaluated at   0.000000,   0.000000,   0.000000 [a0]

Properties computed using the SCF density matrix


 Multipole Moments:

 ------------------------------------------------------------------------------------
     Multipole            Electronic (a.u.)      Nuclear  (a.u.)        Total (a.u.)
 ------------------------------------------------------------------------------------

 L = 1.  Multiply by 2.5417464519 to convert [e a0] to [Debye]
 Dipole X            :         -0.0004942            0.0004953            0.0000011
 Dipole Y            :         46.3042425          -46.8799638           -0.5757213
 Dipole Z            :          0.0000000            0.0000000            0.0000000
 Magnitude           :                                                    0.5757213

 ------------------------------------------------------------------------------------

*** tstop() called on cmpsrv002 at Thu Sep 19 14:28:07 2024
Module time:
	user time   =      38.86 seconds =       0.65 minutes
	system time =       1.53 seconds =       0.03 minutes
	total time  =        108 seconds =       1.80 minutes
Total time:
	user time   =     106.26 seconds =       1.77 minutes
	system time =       6.73 seconds =       0.11 minutes
	total time  =        724 seconds =      12.07 minutes

         ---------------------------------------------------------
               SAPT(DFT): Intermolecular Interaction Segment       

                   by Daniel G. A. Smith and Rob Parrish           
         ---------------------------------------------------------

  ==> Algorithm <==

   SAPT DFT Functional             PBE0
   Monomer A GRAC Shift        0.106591
   Monomer B GRAC Shift        0.113162
   Delta HF                        True
   JK Algorithm                      DF

  ==> Preparing SAPT Data Cache <== 

  ==> DiskDFJK: Density-Fitted J/K Matrices <==

    J tasked:                  Yes
    K tasked:                  Yes
    wK tasked:                  No
    OpenMP threads:              4
    Integrals threads:           4
    Memory [MiB]:             4944
    Algorithm:                Core
    Integral Cache:           SAVE
    Schwarz Cutoff:          1E-12
    Fitting Condition:       1E-10

   => Auxiliary Basis Set <=

  Basis Set: (THIS_BASIS AUX)
    Blend: DEF2-UNIVERSAL-JKFIT
    Number of shells: 109
    Number of basis functions: 415
    Number of Cartesian functions: 544
    Spherical Harmonics?: true
    Max angular momentum: 5


  ==> E10 Electostatics <== 

    Elst10,r                        -66.54318790 [mEh]

  ==> E10 Exchange <== 

    Exch10(S^2)                     117.20796420 [mEh]
    Exch10                          128.02369564 [mEh]

  ==> E20 Induction <== 

   => Uncoupled Induction <= 

    Ind20,u (A<-B)                  -32.45887118 [mEh]
    Ind20,u (A->B)                  -50.66818176 [mEh]
    Ind20,u                         -83.12705294 [mEh]
    Exch-Ind20,u (A<-B)              24.59436030 [mEh]
    Exch-Ind20,u (A->B)              25.62880679 [mEh]
    Exch-Ind20,u                     50.22316709 [mEh]
    Exch-Ind20,u (A<-B) (S^inf)      29.83793275 [mEh]
    Exch-Ind20,u (A->B) (S^inf)      31.47759752 [mEh]
    Exch-Ind20,u (S^inf)             61.31553027 [mEh]

   => Coupled Induction <= 

   ---------------------------------------------------
              SAPT Coupled Induction Solver           
   ---------------------------------------------------
    Maxiter             =          20
    Convergence         =   1.000E-06
   ---------------------------------------------------
     Iter       (A<-B)           (B->A)      Time [s]
   ---------------------------------------------------
    Guess    1.098805e-01     1.198104e-01          4
        1    3.192208e-02     4.344771e-02         10
        2    7.374931e-03     1.428587e-02         16
        3    3.518684e-03     1.259372e-03         20
        4    5.171157e-04     9.813118e-05         23
        5    5.683273e-05     7.363354e-06         25
        6    5.601566e-06     6.609990e-07*        26
        7    5.339125e-07*    6.609990e-07*        27
   ---------------------------------------------------

    Ind20,r (A<-B)                  -34.11691644 [mEh]
    Ind20,r (A->B)                  -53.27715921 [mEh]
    Ind20,r                         -87.39407565 [mEh]
    Exch-Ind20,r (A<-B)              26.36205479 [mEh]
    Exch-Ind20,r (A->B)              28.51987646 [mEh]
    Exch-Ind20,r                     54.88193125 [mEh]
    Exch-Ind20,r (A<-B) (S^inf)      32.01507199 [mEh]
    Exch-Ind20,r (A->B) (S^inf)      35.10744833 [mEh]
    Exch-Ind20,r (S^inf)             67.12252032 [mEh]
   => Loading Basis Set <=

    Name: (THIS_BASIS AUX)
    Role: RIFIT
    Keyword: DF_BASIS_MP2
    atoms 1, 4-6 entry H          line    23 file /home/vance/anaconda3/envs/p4env/share/psi4/basis/def2-qzvp-ri.gbs 
    atoms 2      entry BR         line  2543 file /home/vance/anaconda3/envs/p4env/share/psi4/basis/def2-qzvp-ri.gbs 
    atoms 3      entry N          line   337 file /home/vance/anaconda3/envs/p4env/share/psi4/basis/def2-qzvp-ri.gbs 



  ==> E20 Dispersion (CHF FDDS) <== 

   Legendre Points:          10
   Lambda Shift:          0.300
   Fxc Kernal:             ALDA
   (P|Fxc|Q) Thresh:  1.000e-06
  DFHelper Memory: AOs need 0.456 GiB; user supplied 5.960 GiB. 
  Using in-core AOs.

  ==> DFHelper <==
    NBF:                             252
    NAux:                            961
    Schwarz Cutoff:                1E-12
    Mask sparsity (%):                 6
    DFH Avail. Memory [GiB]:       5.960
    OpenMP threads:                    4
    Algorithm:                    DIRECT
    AO Core:                        True
    MO Core:                       False
    Hold Metric:                   False
    Metric Power:                  0.000
    Fitting Condition:             1E-12
    Q Shell Max:                      13


  DFHelper Memory: AOs need 0.482 GiB; user supplied 5.960 GiB. 
  Using in-core AOs.


   => Time Integration <= 

       Omega       Weight       Disp20,u         Disp20   time [s]
   2.269e+01    6.667e-02      7.746e-04      7.314e-04          5
   4.147e+00    1.495e-01      1.135e-02      1.031e-02          7
   1.572e+00    2.191e-01      2.959e-02      2.471e-02          9
   7.589e-01    2.693e-01      4.491e-02      3.374e-02         11
   4.049e-01    2.955e-01      4.765e-02      3.189e-02         13
   2.223e-01    2.955e-01      3.868e-02      2.391e-02         15
   1.186e-01    2.693e-01      2.664e-02      1.587e-02         17
   5.727e-02    2.191e-01      1.670e-02      9.821e-03         18
   2.170e-02    1.495e-01      9.380e-03      5.493e-03         20
   3.966e-03    6.667e-02      3.745e-03      2.192e-03         21

    Disp20,u                        -36.51417161 [mEh]
    Disp20                          -25.25149920 [mEh]

  ==> E20 Dispersion (MP2) <== 


    Disp20 (MP2)                    -36.44226837 [mEh]
    Exch-Disp20,u                     7.39564911 [mEh]
    Scaling Scheme                    FIXED
    Scaling Factor                    0.770
    Est. Exch-Disp20,r                5.69464982 [mEh]

   SAPT(DFT) Results
  ---------------------------------------------------------------------------------------------------------
    Electrostatics                  -66.54318790 [mEh]    -41.75648082 [kcal/mol]   -174.70911577 [kJ/mol]
      Elst1,r                       -66.54318790 [mEh]    -41.75648082 [kcal/mol]   -174.70911577 [kJ/mol]

    Exchange                        128.02369564 [mEh]     80.33608188 [kcal/mol]    336.12616659 [kJ/mol]
      Exch1                         128.02369564 [mEh]     80.33608188 [kcal/mol]    336.12616659 [kJ/mol]
      Exch1(S^2)                    117.20796420 [mEh]     73.54910794 [kcal/mol]    307.72946761 [kJ/mol]

    Induction                       -63.05464015 [mEh]    -39.56738406 [kcal/mol]   -165.54993491 [kJ/mol]
      Ind2,r                        -87.39407565 [mEh]    -54.84061042 [kcal/mol]   -229.45311401 [kJ/mol]
      Exch-Ind2,r                    54.88193125 [mEh]     34.43893180 [kcal/mol]    144.09249065 [kJ/mol]
      Induction (A<-B)               -7.75486165 [mEh]     -4.86624915 [kcal/mol]    -20.36038645 [kJ/mol]
      Induction (A->B)              -24.75728275 [mEh]    -15.53542947 [kcal/mol]    -65.00023691 [kJ/mol]
      delta HF,r (2)                -30.54249575 [mEh]    -19.16570544 [kcal/mol]    -80.18931155 [kJ/mol]

    Dispersion                      -19.55684938 [mEh]    -12.27210827 [kcal/mol]    -51.34650098 [kJ/mol]
      Disp2,r                       -25.25149920 [mEh]    -15.84555498 [kcal/mol]    -66.29780202 [kJ/mol]
      Disp2,u                       -36.44226837 [mEh]    -22.86786865 [kcal/mol]    -95.67916242 [kJ/mol]
      Est. Exch-Disp2,r               5.69464982 [mEh]      3.57344671 [kcal/mol]     14.95130103 [kJ/mol]
      Exch-Disp2,u                    7.39564911 [mEh]      4.64083988 [kcal/mol]     19.41727407 [kJ/mol]

    Total SAPT(DFT)                 -21.13098180 [mEh]    -13.25989127 [kcal/mol]    -55.47938508 [kJ/mol]
  ---------------------------------------------------------------------------------------------------------

*** tstop() called on cmpsrv002 at Thu Sep 19 15:22:45 2024
Module time:
	user time   =     370.86 seconds =       6.18 minutes
	system time =      33.67 seconds =       0.56 minutes
	total time  =       3387 seconds =      56.45 minutes
Total time:
	user time   =     436.47 seconds =       7.27 minutes
	system time =      38.82 seconds =       0.65 minutes
	total time  =       3996 seconds =      66.60 minutes

    Psi4 stopped on: Thursday, 19 September 2024 03:22PM
    Psi4 wall time for execution: 1:06:36.29

*** Psi4 exiting successfully. Buy a developer a beer!
