
    -----------------------------------------------------------------------
          Psi4: An Open-Source Ab Initio Electronic Structure Package
                               Psi4 1.9.1 release

                         Git: Rev {} zzzzzzz 


    D. G. A. Smith, L. A. Burns, A. C. Simmonett, R. M. Parrish,
    M. C. Schieber, R. Galvelis, P. Kraus, H. Kruse, R. Di Remigio,
    A. Alenaizan, A. M. James, S. Lehtola, J. P. Misiewicz, M. Scheurer,
    R. A. Shaw, J. B. Schriber, Y. Xie, Z. L. Glick, D. A. Sirianni,
    J. S. O'Brien, J. M. Waldrop, A. Kumar, E. G. Hohenstein,
    B. P. Pritchard, B. R. Brooks, H. F. Schaefer III, A. Yu. Sokolov,
    K. Patkowski, A. E. DePrince III, U. Bozkaya, R. A. King,
    F. A. Evangelista, J. M. Turney, T. D. Crawford, C. D. Sherrill,
    J. Chem. Phys. 152(18) 184108 (2020). https://doi.org/10.1063/5.0006002

                            Additional Code Authors
    E. T. Seidl, C. L. Janssen, E. F. Valeev, M. L. Leininger,
    J. F. Gonthier, R. M. Richard, H. R. McAlexander, M. Saitow, X. Wang,
    P. Verma, M. H. Lechner, A. Jiang, S. Behnle, A. G. Heide,
    M. F. Herbst, and D. L. Poole

             Previous Authors, Complete List of Code Contributors,
                       and Citations for Specific Modules
    https://github.com/psi4/psi4/blob/master/codemeta.json
    https://github.com/psi4/psi4/graphs/contributors
    http://psicode.org/psi4manual/master/introduction.html#citing-psifour

    -----------------------------------------------------------------------


    Psi4 started on: Thursday, 19 September 2024 02:16PM

    Process ID: 605876
    Host:       cmpsrv002
    PSIDATADIR: /home/vance/anaconda3/envs/p4env/share/psi4
    Memory:     500.0 MiB
    Threads:    8
    
  ==> Input File <==

--------------------------------------------------------------------------
#charge=0 charge_a=0 charge_b=0 selection_a=1-2 selection_b=3-6 scaling=1.1 benchmark_Eint=-9.461 benchmark_unit=kcal/mol group=XH-N
set_num_threads(4)
memory 8 GB
basis this_basis {
    assign    def2-qzvp
}

molecule {
     0 1
    --
     0 1
     H        0.00002       -0.93248        0.00000
    Br       -0.00001        0.58174        0.00000
    --
     0 1
     N        0.00003       -2.74321        0.00000
     H       -0.47435       -3.09567        0.82165
     H       -0.47435       -3.09567       -0.82165
     H        0.94878       -3.09568        0.00000
}

set {
    sapt_dft_functional     PBE0
    scf_type                DF
    freeze_core             true
    sapt_dft_grac_shift_a    0.106591
    sapt_dft_grac_shift_b    0.113162
    sapt_dft_do_hybrid      true
    do_ind_exch_sinf        true
    do_disp_exch_sinf       true
}

nrg = energy('sapt(DFT)')
--------------------------------------------------------------------------
  Threads set to 4 by Python driver.

  Memory set to   7.451 GiB by Python driver.

Scratch directory: /scratch2/vance/psi4/

*** tstart() called on cmpsrv002
*** at Thu Sep 19 14:16:08 2024

  SAPT does not make use of molecular symmetry, further calculations in C1 point group.

         ---------------------------------------------------------
                            SAPT(DFT) Procedure                    

                           by Daniel G. A. Smith                   
         ---------------------------------------------------------

Warning! The default value of SAPT_DFT_EXCH_DISP_SCALE_SCHEME has changed from DISP to FIXED. Please be careful comparing results with earlier versions. 

  ==> Algorithm <==

   SAPT DFT Functional             PBE0
   Monomer A GRAC Shift        0.106591
   Monomer B GRAC Shift        0.113162
   Delta HF                        True
   JK Algorithm                      DF

   Required computations:
     HF  (Dimer)
     HF  (Monomer A)
     HF  (Monomer B)
     DFT (Monomer A)
     DFT (Monomer B)

   => Libint2 <=

    Primary   basis highest AM E, G, H:  6, 6, 3
    Auxiliary basis highest AM E, G, H:  7, 7, 4
    Onebody   basis highest AM E, G, H:  -, -, -
    Solid Harmonics ordering:            Gaussian

*** tstart() called on cmpsrv002
*** at Thu Sep 19 14:16:08 2024

   => Loading Basis Set <=

    Name: THIS_BASIS
    Role: ORBITAL
    Keyword: BASIS
    atoms 1, 4-6 entry H          line    15 file /home/vance/anaconda3/envs/p4env/share/psi4/basis/def2-qzvp.gbs 
    atoms 2      entry BR         line  2253 file /home/vance/anaconda3/envs/p4env/share/psi4/basis/def2-qzvp.gbs 
    atoms 3      entry N          line   242 file /home/vance/anaconda3/envs/p4env/share/psi4/basis/def2-qzvp.gbs 


         ---------------------------------------------------------
                         SAPT(DFT): delta HF Dimer                 
         ---------------------------------------------------------
                                   SCF
               by Justin Turney, Rob Parrish, Andy Simmonett
                          and Daniel G. A. Smith
                              RHF Reference
                        4 Threads,   7629 MiB Core
         ---------------------------------------------------------

  ==> Geometry <==

    Molecular point group: c1
    Full point group: Cs

    Geometry (in Angstrom), charge = 0, multiplicity = 1:

       Center              X                  Y                   Z               Mass       
    ------------   -----------------  -----------------  -----------------  -----------------
         H            0.000022767418    -0.903570165597     0.000000000000     1.007825032230
         BR          -0.000007232582     0.610649834403     0.000000000000    78.918337600000
         N            0.000032767418    -2.714300165597     0.000000000000    14.003074004430
         H           -0.474347232582    -3.066760165597     0.821650000000     1.007825032230
         H           -0.474347232582    -3.066760165597    -0.821650000000     1.007825032230
         H            0.948782767418    -3.066770165597     0.000000000000     1.007825032230

  Running in c1 symmetry.

  Rotational constants: A =      6.19413  B =      0.10329  C =      0.10329 [cm^-1]
  Rotational constants: A = 185695.44928  B =   3096.41554  C =   3096.41519 [MHz]
  Nuclear repulsion =   80.518072404926727

  Charge       = 0
  Multiplicity = 1
  Electrons    = 46
  Nalpha       = 23
  Nbeta        = 23

  ==> Algorithm <==

  SCF Algorithm Type is DF.
  DIIS enabled.
  MOM disabled.
  Fractional occupation disabled.
  Guess Type is SAD.
  Energy threshold   = 1.00e-08
  Density threshold  = 1.00e-08
  Integral threshold = 1.00e-12

  ==> Primary Basis <==

  Basis Set: THIS_BASIS
    Blend: DEF2-QZVP
    Number of shells: 82
    Number of basis functions: 252
    Number of Cartesian functions: 303
    Spherical Harmonics?: true
    Max angular momentum: 4

   => Loading Basis Set <=

    Name: (THIS_BASIS AUX)
    Role: JKFIT
    Keyword: DF_BASIS_SCF
    atoms 1, 4-6 entry H          line    18 file /home/vance/anaconda3/envs/p4env/share/psi4/basis/def2-universal-jkfit.gbs 
    atoms 2      entry BR         line  3124 file /home/vance/anaconda3/envs/p4env/share/psi4/basis/def2-universal-jkfit.gbs 
    atoms 3      entry N          line   258 file /home/vance/anaconda3/envs/p4env/share/psi4/basis/def2-universal-jkfit.gbs 

  ==> Integral Setup <==

  ==> DiskDFJK: Density-Fitted J/K Matrices <==

    J tasked:                  Yes
    K tasked:                  Yes
    wK tasked:                  No
    OpenMP threads:              4
    Integrals threads:           4
    Memory [MiB]:             5722
    Algorithm:                Core
    Integral Cache:           SAVE
    Schwarz Cutoff:          1E-12
    Fitting Condition:       1E-10

   => Auxiliary Basis Set <=

  Basis Set: (THIS_BASIS AUX)
    Blend: DEF2-UNIVERSAL-JKFIT
    Number of shells: 109
    Number of basis functions: 415
    Number of Cartesian functions: 544
    Spherical Harmonics?: true
    Max angular momentum: 5

  Minimum eigenvalue in the overlap matrix is 1.1498141546E-04.
  Reciprocal condition number of the overlap matrix is 1.3869517061E-05.
    Using symmetric orthogonalization.

  ==> Pre-Iterations <==

  SCF Guess: Superposition of Atomic Densities via on-the-fly atomic UHF (no occupation information).

   -------------------------
    Irrep   Nso     Nmo    
   -------------------------
     A        252     252 
   -------------------------
    Total     252     252
   -------------------------

  ==> Iterations <==

                           Total Energy        Delta E     RMS |[F,P]|

   @DF-RHF iter SAD: -2626.89558946774969   -2.62690e+03   0.00000e+00 
   @DF-RHF iter   1: -2628.90808853252793   -2.01250e+00   7.03081e-03 DIIS/ADIIS
   @DF-RHF iter   2: -2629.15385453493946   -2.45766e-01   4.62887e-03 DIIS/ADIIS
   @DF-RHF iter   3: -2629.27866938084071   -1.24815e-01   1.61895e-04 DIIS/ADIIS
   @DF-RHF iter   4: -2629.27967924064842   -1.00986e-03   5.42444e-05 DIIS
   @DF-RHF iter   5: -2629.27982595787944   -1.46717e-04   1.83240e-05 DIIS
   @DF-RHF iter   6: -2629.27984600593209   -2.00481e-05   6.11990e-06 DIIS
   @DF-RHF iter   7: -2629.27984814992942   -2.14400e-06   1.23432e-06 DIIS
   @DF-RHF iter   8: -2629.27984830471405   -1.54785e-07   4.01210e-07 DIIS
   @DF-RHF iter   9: -2629.27984831559934   -1.08853e-08   6.77461e-08 DIIS
   @DF-RHF iter  10: -2629.27984831595904   -3.59705e-10   1.02705e-08 DIIS
   @DF-RHF iter  11: -2629.27984831596996   -1.09139e-11   2.32974e-09 DIIS
  Energy and wave function converged.


  ==> Post-Iterations <==

    Orbital Energies [Eh]
    ---------------------

    Doubly Occupied:                                                      

       1A   -489.988927     2A    -65.129190     3A    -58.484418  
       4A    -58.483525     5A    -58.483525     6A    -15.584571  
       7A     -9.801626     8A     -7.411985     9A     -7.407460  
      10A     -7.407460    11A     -3.155175    12A     -3.152446  
      13A     -3.152446    14A     -3.146637    15A     -3.146637  
      16A     -1.187205    17A     -0.979409    18A     -0.676317  
      19A     -0.676316    20A     -0.567616    21A     -0.436320  
      22A     -0.393372    23A     -0.393372  

    Virtual:                                                              

      24A      0.085250    25A      0.139713    26A      0.139714  
      27A      0.174546    28A      0.234747    29A      0.263685  
      30A      0.263685    31A      0.314842    32A      0.315206  
      33A      0.315206    34A      0.339138    35A      0.448823  
      36A      0.448825    37A      0.483649    38A      0.489771  
      39A      0.489772    40A      0.512248    41A      0.512248  
      42A      0.564135    43A      0.564135    44A      0.578523  
      45A      0.688168    46A      0.802087    47A      0.837502  
      48A      0.842522    49A      0.842522    50A      0.871787  
      51A      0.871789    52A      0.946180    53A      1.034689  
      54A      1.034691    55A      1.054659    56A      1.054659  
      57A      1.087011    58A      1.146638    59A      1.227596  
      60A      1.227596    61A      1.239590    62A      1.245464  
      63A      1.249936    64A      1.254117    65A      1.254118  
      66A      1.299126    67A      1.299126    68A      1.337112  
      69A      1.372484    70A      1.372485    71A      1.376622  
      72A      1.468400    73A      1.558584    74A      1.558588  
      75A      1.736148    76A      1.736148    77A      1.739094  
      78A      1.781124    79A      1.781124    80A      1.809244  
      81A      1.891426    82A      1.891431    83A      2.092326  
      84A      2.175941    85A      2.175942    86A      2.267002  
      87A      2.267003    88A      2.299308    89A      2.307275  
      90A      2.356792    91A      2.434357    92A      2.434357  
      93A      2.491661    94A      2.491662    95A      2.526417  
      96A      2.526421    97A      2.587377    98A      2.587379  
      99A      2.653245   100A      2.668110   101A      2.668111  
     102A      2.729542   103A      2.776029   104A      2.776032  
     105A      2.821631   106A      2.875013   107A      2.997199  
     108A      2.997205   109A      2.998230   110A      3.033119  
     111A      3.033329   112A      3.049023   113A      3.049023  
     114A      3.049574   115A      3.049576   116A      3.090759  
     117A      3.090759   118A      3.100704   119A      3.104664  
     120A      3.108348   121A      3.160866   122A      3.160870  
     123A      3.196807   124A      3.273630   125A      3.296169  
     126A      3.296170   127A      3.438433   128A      3.438439  
     129A      3.484424   130A      3.484426   131A      3.517668  
     132A      3.667088   133A      3.883058   134A      3.925523  
     135A      3.925530   136A      3.974472   137A      3.974477  
     138A      3.993182   139A      4.142054   140A      4.266278  
     141A      4.330789   142A      4.330791   143A      4.386923  
     144A      4.386925   145A      4.553002   146A      4.615129  
     147A      4.615138   148A      4.683586   149A      5.192123  
     150A      5.402167   151A      5.402170   152A      5.484319  
     153A      5.484319   154A      5.597586   155A      5.597587  
     156A      5.606793   157A      6.086897   158A      6.092033  
     159A      6.122396   160A      6.122398   161A      6.226625  
     162A      6.226632   163A      6.287217   164A      6.312466  
     165A      6.345771   166A      6.345783   167A      6.420043  
     168A      6.420044   169A      6.748368   170A      6.776663  
     171A      6.867674   172A      6.867681   173A      6.972531  
     174A      6.972533   175A      7.114326   176A      7.225540  
     177A      7.233175   178A      7.233177   179A      7.372460  
     180A      7.372468   181A      7.493315   182A      7.580891  
     183A      7.580896   184A      7.644313   185A      7.653026  
     186A      7.653031   187A      7.724193   188A      7.942974  
     189A      7.942977   190A      8.006213   191A      8.086434  
     192A      8.086437   193A      8.107983   194A      8.107984  
     195A      8.110691   196A      8.253237   197A      8.262136  
     198A      8.262136   199A      8.362878   200A      8.362880  
     201A      8.401506   202A      8.474932   203A      8.491506  
     204A      8.491517   205A      8.532314   206A      8.615423  
     207A      8.717017   208A      8.722634   209A      8.722644  
     210A      8.842290   211A      8.842290   212A      8.875759  
     213A      9.039499   214A      9.039501   215A      9.073405  
     216A      9.073409   217A      9.095612   218A      9.453004  
     219A      9.511193   220A      9.511197   221A      9.606683  
     222A      9.881027   223A      9.881031   224A     10.015922  
     225A     10.088922   226A     10.088923   227A     10.266852  
     228A     10.319785   229A     10.500962   230A     10.500965  
     231A     10.659632   232A     11.594667   233A     11.668559  
     234A     11.668572   235A     12.085414   236A     12.097374  
     237A     12.097378   238A     12.278335   239A     12.278366  
     240A     12.427953   241A     14.474553   242A     14.474554  
     243A     14.829340   244A     14.829345   245A     14.839167  
     246A     15.699586   247A     30.305251   248A     39.408849  
     249A     96.803329   250A    200.533645   251A    325.319755  
     252A   1828.332933  

    Final Occupation by Irrep:
              A 
    DOCC [    23 ]
    NA   [    23 ]
    NB   [    23 ]

  @DF-RHF Final Energy: -2629.27984831596996

   => Energetics <=

    Nuclear Repulsion Energy =             80.5180724049267269
    One-Electron Energy =               -3821.1039297010652263
    Two-Electron Energy =                1111.3060089801679169
    Total Energy =                      -2629.2798483159704119

Computation Completed


Properties will be evaluated at   0.000000,   0.000000,   0.000000 [a0]

Properties computed using the SCF density matrix


 Multipole Moments:

 ------------------------------------------------------------------------------------
     Multipole            Electronic (a.u.)      Nuclear  (a.u.)        Total (a.u.)
 ------------------------------------------------------------------------------------

 L = 1.  Multiply by 2.5417464519 to convert [e a0] to [Debye]
 Dipole X            :         -0.0001502            0.0001650            0.0000147
 Dipole Y            :         12.7873375          -14.6098839           -1.8225464
 Dipole Z            :         -0.0000000            0.0000000           -0.0000000
 Magnitude           :                                                    1.8225464

 ------------------------------------------------------------------------------------

*** tstop() called on cmpsrv002 at Thu Sep 19 14:19:30 2024
Module time:
	user time   =      14.07 seconds =       0.23 minutes
	system time =       1.81 seconds =       0.03 minutes
	total time  =        202 seconds =       3.37 minutes
Total time:
	user time   =      14.07 seconds =       0.23 minutes
	system time =       1.81 seconds =       0.03 minutes
	total time  =        202 seconds =       3.37 minutes
   => Libint2 <=

    Primary   basis highest AM E, G, H:  6, 6, 3
    Auxiliary basis highest AM E, G, H:  7, 7, 4
    Onebody   basis highest AM E, G, H:  -, -, -
    Solid Harmonics ordering:            Gaussian

*** tstart() called on cmpsrv002
*** at Thu Sep 19 14:19:30 2024

   => Loading Basis Set <=

    Name: THIS_BASIS
    Role: ORBITAL
    Keyword: BASIS
    atoms 1, 4-6 entry H          line    15 file /home/vance/anaconda3/envs/p4env/share/psi4/basis/def2-qzvp.gbs 
    atoms 2      entry BR         line  2253 file /home/vance/anaconda3/envs/p4env/share/psi4/basis/def2-qzvp.gbs 
    atoms 3      entry N          line   242 file /home/vance/anaconda3/envs/p4env/share/psi4/basis/def2-qzvp.gbs 


         ---------------------------------------------------------
                       SAPT(DFT): delta HF Monomer A               
         ---------------------------------------------------------
                                   SCF
               by Justin Turney, Rob Parrish, Andy Simmonett
                          and Daniel G. A. Smith
                              RHF Reference
                        4 Threads,   7629 MiB Core
         ---------------------------------------------------------

  ==> Geometry <==

    Molecular point group: c1
    Full point group: Cs

    Geometry (in Angstrom), charge = 0, multiplicity = 1:

       Center              X                  Y                   Z               Mass       
    ------------   -----------------  -----------------  -----------------  -----------------
         H            0.000022767418    -0.903570165597     0.000000000000     1.007825032230
         BR          -0.000007232582     0.610649834403     0.000000000000    78.918337600000
      Gh(N)           0.000032767418    -2.714300165597     0.000000000000    14.003074004430
      Gh(H)          -0.474347232582    -3.066760165597     0.821650000000     1.007825032230
      Gh(H)          -0.474347232582    -3.066760165597    -0.821650000000     1.007825032230
      Gh(H)           0.948782767418    -3.066770165597     0.000000000000     1.007825032230

  Running in c1 symmetry.

  Rotational constants: A =      6.19413  B =      0.10329  C =      0.10329 [cm^-1]
  Rotational constants: A = 185695.44928  B =   3096.41554  C =   3096.41519 [MHz]
  Nuclear repulsion =   12.231513498576831

  Charge       = 0
  Multiplicity = 1
  Electrons    = 36
  Nalpha       = 18
  Nbeta        = 18

  ==> Algorithm <==

  SCF Algorithm Type is DF.
  DIIS enabled.
  MOM disabled.
  Fractional occupation disabled.
  Guess Type is SAD.
  Energy threshold   = 1.00e-08
  Density threshold  = 1.00e-08
  Integral threshold = 1.00e-12

  ==> Primary Basis <==

  Basis Set: THIS_BASIS
    Blend: DEF2-QZVP
    Number of shells: 82
    Number of basis functions: 252
    Number of Cartesian functions: 303
    Spherical Harmonics?: true
    Max angular momentum: 4

   => Loading Basis Set <=

    Name: (THIS_BASIS AUX)
    Role: JKFIT
    Keyword: DF_BASIS_SCF
    atoms 1, 4-6 entry H          line    18 file /home/vance/anaconda3/envs/p4env/share/psi4/basis/def2-universal-jkfit.gbs 
    atoms 2      entry BR         line  3124 file /home/vance/anaconda3/envs/p4env/share/psi4/basis/def2-universal-jkfit.gbs 
    atoms 3      entry N          line   258 file /home/vance/anaconda3/envs/p4env/share/psi4/basis/def2-universal-jkfit.gbs 

  ==> Integral Setup <==

  ==> DiskDFJK: Density-Fitted J/K Matrices <==

    J tasked:                  Yes
    K tasked:                  Yes
    wK tasked:                  No
    OpenMP threads:              4
    Integrals threads:           4
    Memory [MiB]:             5722
    Algorithm:                Core
    Integral Cache:           SAVE
    Schwarz Cutoff:          1E-12
    Fitting Condition:       1E-10

   => Auxiliary Basis Set <=

  Basis Set: (THIS_BASIS AUX)
    Blend: DEF2-UNIVERSAL-JKFIT
    Number of shells: 109
    Number of basis functions: 415
    Number of Cartesian functions: 544
    Spherical Harmonics?: true
    Max angular momentum: 5

  Minimum eigenvalue in the overlap matrix is 1.1498141546E-04.
  Reciprocal condition number of the overlap matrix is 1.3869517061E-05.
    Using symmetric orthogonalization.

  ==> Pre-Iterations <==

  SCF Guess: Superposition of Atomic Densities via on-the-fly atomic UHF (no occupation information).

   -------------------------
    Irrep   Nso     Nmo    
   -------------------------
     A        252     252 
   -------------------------
    Total     252     252
   -------------------------

  ==> Iterations <==

                           Total Energy        Delta E     RMS |[F,P]|

   @DF-RHF iter SAD: -2571.10345824958858   -2.57110e+03   0.00000e+00 
   @DF-RHF iter   1: -2572.74132855731341   -1.63787e+00   6.82486e-03 DIIS/ADIIS
   @DF-RHF iter   2: -2572.93147797427355   -1.90149e-01   4.54613e-03 DIIS/ADIIS
   @DF-RHF iter   3: -2573.04564696890475   -1.14169e-01   1.02116e-04 DIIS/ADIIS
   @DF-RHF iter   4: -2573.04614579457802   -4.98826e-04   3.62901e-05 DIIS
   @DF-RHF iter   5: -2573.04622791529573   -8.21207e-05   1.04331e-05 DIIS
   @DF-RHF iter   6: -2573.04623791080621   -9.99551e-06   2.14511e-06 DIIS
   @DF-RHF iter   7: -2573.04623821160430   -3.00798e-07   4.02309e-07 DIIS
   @DF-RHF iter   8: -2573.04623822167514   -1.00708e-08   5.64417e-08 DIIS
   @DF-RHF iter   9: -2573.04623822196299   -2.87855e-10   7.63811e-09 DIIS
  Energy and wave function converged.


  ==> Post-Iterations <==

    Orbital Energies [Eh]
    ---------------------

    Doubly Occupied:                                                      

       1A   -490.040302     2A    -65.179831     3A    -58.535409  
       4A    -58.533952     5A    -58.533952     6A     -9.851719  
       7A     -7.463147     8A     -7.456579     9A     -7.456579  
      10A     -3.207063    11A     -3.203319    12A     -3.203319  
      13A     -3.194715    14A     -3.194715    15A     -1.020404  
      16A     -0.564635    17A     -0.433484    18A     -0.433484  

    Virtual:                                                              

      19A      0.052863    20A      0.123088    21A      0.136775  
      22A      0.136775    23A      0.214420    24A      0.242227  
      25A      0.272002    26A      0.272002    27A      0.302817  
      28A      0.302817    29A      0.326708    30A      0.391604  
      31A      0.447577    32A      0.447578    33A      0.476520  
      34A      0.476520    35A      0.541305    36A      0.541307  
      37A      0.553262    38A      0.640581    39A      0.650097  
      40A      0.650097    41A      0.798681    42A      0.855728  
      43A      0.855730    44A      0.871740    45A      0.938599  
      46A      0.940086    47A      0.940088    48A      0.941174  
      49A      1.056805    50A      1.088804    51A      1.088806  
      52A      1.129497    53A      1.129498    54A      1.191392  
      55A      1.195605    56A      1.195605    57A      1.211260  
      58A      1.211483    59A      1.258515    60A      1.258515  
      61A      1.292035    62A      1.346443    63A      1.346444  
      64A      1.354022    65A      1.391132    66A      1.391132  
      67A      1.486938    68A      1.600927    69A      1.600927  
      70A      1.631153    71A      1.697056    72A      1.697056  
      73A      1.755815    74A      1.768729    75A      1.768729  
      76A      1.968917    77A      2.093750    78A      2.126796  
      79A      2.126796    80A      2.217856    81A      2.217857  
      82A      2.353230    83A      2.392394    84A      2.392396  
      85A      2.466145    86A      2.517232    87A      2.517235  
      88A      2.551508    89A      2.551509    90A      2.574138  
      91A      2.649497    92A      2.649500    93A      2.679464  
      94A      2.704421    95A      2.704422    96A      2.751375  
      97A      2.870276    98A      2.870277    99A      2.912732  
     100A      2.912735   101A      2.915384   102A      2.939411  
     103A      2.939415   104A      2.991491   105A      2.991528  
     106A      3.001206   107A      3.010770   108A      3.010770  
     109A      3.043749   110A      3.043750   111A      3.064027  
     112A      3.064169   113A      3.153467   114A      3.153469  
     115A      3.161779   116A      3.205925   117A      3.268885  
     118A      3.268888   119A      3.372463   120A      3.422423  
     121A      3.428456   122A      3.428457   123A      3.518628  
     124A      3.518630   125A      3.585663   126A      3.731907  
     127A      3.731915   128A      3.811139   129A      3.811142  
     130A      3.823389   131A      3.951091   132A      4.025514  
     133A      4.102884   134A      4.102888   135A      4.317817  
     136A      4.348487   137A      4.348488   138A      4.383617  
     139A      4.543162   140A      4.543163   141A      4.561212  
     142A      4.688883   143A      5.053218   144A      5.053222  
     145A      5.410229   146A      5.440151   147A      5.440151  
     148A      5.555221   149A      5.555222   150A      5.599586  
     151A      5.996753   152A      5.996764   153A      6.050242  
     154A      6.056141   155A      6.343523   156A      6.343525  
     157A      6.458947   158A      6.458953   159A      6.467566  
     160A      6.467571   161A      6.518355   162A      6.549524  
     163A      6.757105   164A      6.757118   165A      7.027475  
     166A      7.027481   167A      7.134457   168A      7.184521  
     169A      7.184521   170A      7.395698   171A      7.421943  
     172A      7.421947   173A      7.480665   174A      7.641760  
     175A      7.680332   176A      7.796363   177A      7.796363  
     178A      7.952767   179A      8.051122   180A      8.051123  
     181A      8.147439   182A      8.196686   183A      8.196689  
     184A      8.224921   185A      8.224923   186A      8.346626  
     187A      8.453550   188A      8.453553   189A      8.542663  
     190A      8.604941   191A      8.604946   192A      8.630081  
     193A      8.763256   194A      8.763257   195A      8.787703  
     196A      8.801615   197A      8.818016   198A      8.818018  
     199A      8.985544   200A      8.992613   201A      8.992621  
     202A      9.152031   203A      9.228240   204A      9.248011  
     205A      9.248026   206A      9.332357   207A      9.332362  
     208A      9.477112   209A      9.543659   210A      9.699766  
     211A      9.728807   212A      9.728810   213A      9.886256  
     214A     10.010867   215A     10.078060   216A     10.078063  
     217A     10.237924   218A     10.237937   219A     10.300212  
     220A     10.694397   221A     10.694405   222A     11.020333  
     223A     11.020335   224A     11.192595   225A     11.744054  
     226A     11.793289   227A     11.793291   228A     12.354937  
     229A     12.354968   230A     12.777079   231A     13.680536  
     232A     13.863493   233A     13.863509   234A     14.181460  
     235A     14.281177   236A     14.281195   237A     14.428742  
     238A     14.428742   239A     14.573055   240A     14.573071  
     241A     14.626138   242A     14.787301   243A     16.118564  
     244A     18.246671   245A     18.246694   246A     25.537399  
     247A     30.256312   248A     70.304927   249A     96.753233  
     250A    318.679284   251A    325.269026   252A   1828.281697  

    Final Occupation by Irrep:
              A 
    DOCC [    18 ]
    NA   [    18 ]
    NB   [    18 ]

  @DF-RHF Final Energy: -2573.04623822196299

   => Energetics <=

    Nuclear Repulsion Energy =             12.2315134985768310
    One-Electron Energy =               -3607.5422953154434254
    Two-Electron Energy =                1022.2645435949035573
    Total Energy =                      -2573.0462382219629944

Computation Completed


Properties will be evaluated at   0.000000,   0.000000,   0.000000 [a0]

Properties computed using the SCF density matrix


 Multipole Moments:

 ------------------------------------------------------------------------------------
     Multipole            Electronic (a.u.)      Nuclear  (a.u.)        Total (a.u.)
 ------------------------------------------------------------------------------------

 L = 1.  Multiply by 2.5417464519 to convert [e a0] to [Debye]
 Dipole X            :          0.0004434           -0.0004353            0.0000081
 Dipole Y            :        -39.0881004           38.6811329           -0.4069675
 Dipole Z            :          0.0000000            0.0000000            0.0000000
 Magnitude           :                                                    0.4069675

 ------------------------------------------------------------------------------------

*** tstop() called on cmpsrv002 at Thu Sep 19 14:21:28 2024
Module time:
	user time   =      12.61 seconds =       0.21 minutes
	system time =       1.24 seconds =       0.02 minutes
	total time  =        118 seconds =       1.97 minutes
Total time:
	user time   =      26.68 seconds =       0.44 minutes
	system time =       3.05 seconds =       0.05 minutes
	total time  =        320 seconds =       5.33 minutes
   => Libint2 <=

    Primary   basis highest AM E, G, H:  6, 6, 3
    Auxiliary basis highest AM E, G, H:  7, 7, 4
    Onebody   basis highest AM E, G, H:  -, -, -
    Solid Harmonics ordering:            Gaussian

*** tstart() called on cmpsrv002
*** at Thu Sep 19 14:21:28 2024

   => Loading Basis Set <=

    Name: THIS_BASIS
    Role: ORBITAL
    Keyword: BASIS
    atoms 1, 4-6 entry H          line    15 file /home/vance/anaconda3/envs/p4env/share/psi4/basis/def2-qzvp.gbs 
    atoms 2      entry BR         line  2253 file /home/vance/anaconda3/envs/p4env/share/psi4/basis/def2-qzvp.gbs 
    atoms 3      entry N          line   242 file /home/vance/anaconda3/envs/p4env/share/psi4/basis/def2-qzvp.gbs 


         ---------------------------------------------------------
                       SAPT(DFT): delta HF Monomer B               
         ---------------------------------------------------------
                                   SCF
               by Justin Turney, Rob Parrish, Andy Simmonett
                          and Daniel G. A. Smith
                              RHF Reference
                        4 Threads,   7629 MiB Core
         ---------------------------------------------------------

  ==> Geometry <==

    Molecular point group: c1
    Full point group: Cs

    Geometry (in Angstrom), charge = 0, multiplicity = 1:

       Center              X                  Y                   Z               Mass       
    ------------   -----------------  -----------------  -----------------  -----------------
      Gh(H)           0.000022767418    -0.903570165597     0.000000000000     1.007825032230
      Gh(BR)         -0.000007232582     0.610649834403     0.000000000000    78.918337600000
         N            0.000032767418    -2.714300165597     0.000000000000    14.003074004430
         H           -0.474347232582    -3.066760165597     0.821650000000     1.007825032230
         H           -0.474347232582    -3.066760165597    -0.821650000000     1.007825032230
         H            0.948782767418    -3.066770165597     0.000000000000     1.007825032230

  Running in c1 symmetry.

  Rotational constants: A =      6.19413  B =      0.10329  C =      0.10329 [cm^-1]
  Rotational constants: A = 185695.44928  B =   3096.41554  C =   3096.41519 [MHz]
  Nuclear repulsion =   11.945808662741523

  Charge       = 0
  Multiplicity = 1
  Electrons    = 10
  Nalpha       = 5
  Nbeta        = 5

  ==> Algorithm <==

  SCF Algorithm Type is DF.
  DIIS enabled.
  MOM disabled.
  Fractional occupation disabled.
  Guess Type is SAD.
  Energy threshold   = 1.00e-08
  Density threshold  = 1.00e-08
  Integral threshold = 1.00e-12

  ==> Primary Basis <==

  Basis Set: THIS_BASIS
    Blend: DEF2-QZVP
    Number of shells: 82
    Number of basis functions: 252
    Number of Cartesian functions: 303
    Spherical Harmonics?: true
    Max angular momentum: 4

   => Loading Basis Set <=

    Name: (THIS_BASIS AUX)
    Role: JKFIT
    Keyword: DF_BASIS_SCF
    atoms 1, 4-6 entry H          line    18 file /home/vance/anaconda3/envs/p4env/share/psi4/basis/def2-universal-jkfit.gbs 
    atoms 2      entry BR         line  3124 file /home/vance/anaconda3/envs/p4env/share/psi4/basis/def2-universal-jkfit.gbs 
    atoms 3      entry N          line   258 file /home/vance/anaconda3/envs/p4env/share/psi4/basis/def2-universal-jkfit.gbs 

  ==> Integral Setup <==

  ==> DiskDFJK: Density-Fitted J/K Matrices <==

    J tasked:                  Yes
    K tasked:                  Yes
    wK tasked:                  No
    OpenMP threads:              4
    Integrals threads:           4
    Memory [MiB]:             5722
    Algorithm:                Core
    Integral Cache:           SAVE
    Schwarz Cutoff:          1E-12
    Fitting Condition:       1E-10

   => Auxiliary Basis Set <=

  Basis Set: (THIS_BASIS AUX)
    Blend: DEF2-UNIVERSAL-JKFIT
    Number of shells: 109
    Number of basis functions: 415
    Number of Cartesian functions: 544
    Spherical Harmonics?: true
    Max angular momentum: 5

  Minimum eigenvalue in the overlap matrix is 1.1498141546E-04.
  Reciprocal condition number of the overlap matrix is 1.3869517061E-05.
    Using symmetric orthogonalization.

  ==> Pre-Iterations <==

  SCF Guess: Superposition of Atomic Densities via on-the-fly atomic UHF (no occupation information).

   -------------------------
    Irrep   Nso     Nmo    
   -------------------------
     A        252     252 
   -------------------------
    Total     252     252
   -------------------------

  ==> Iterations <==

                           Total Energy        Delta E     RMS |[F,P]|

   @DF-RHF iter SAD:   -55.65138612327745   -5.56514e+01   0.00000e+00 
   @DF-RHF iter   1:   -56.13000819527315   -4.78622e-01   1.82279e-03 DIIS/ADIIS
   @DF-RHF iter   2:   -56.19694059518768   -6.69324e-02   1.05109e-03 DIIS/ADIIS
   @DF-RHF iter   3:   -56.22380905479322   -2.68685e-02   9.74473e-05 DIIS
   @DF-RHF iter   4:   -56.22443698097891   -6.27926e-04   1.80974e-05 DIIS
   @DF-RHF iter   5:   -56.22445745054940   -2.04696e-05   3.37214e-06 DIIS
   @DF-RHF iter   6:   -56.22445865650980   -1.20596e-06   8.56620e-07 DIIS
   @DF-RHF iter   7:   -56.22445873887952   -8.23697e-08   1.89582e-07 DIIS
   @DF-RHF iter   8:   -56.22445874319930   -4.31978e-09   3.01718e-08 DIIS
   @DF-RHF iter   9:   -56.22445874330825   -1.08948e-10   8.43291e-09 DIIS
  Energy and wave function converged.


  ==> Post-Iterations <==

    Orbital Energies [Eh]
    ---------------------

    Doubly Occupied:                                                      

       1A    -15.538424     2A     -1.138653     3A     -0.631211  
       4A     -0.631211     5A     -0.424013  

    Virtual:                                                              

       6A      0.099140     7A      0.121389     8A      0.155080  
       9A      0.155080    10A      0.196734    11A      0.196735  
      12A      0.227303    13A      0.323037    14A      0.323038  
      15A      0.326651    16A      0.381712    17A      0.507499  
      18A      0.521907    19A      0.521908    20A      0.542012  
      21A      0.542013    22A      0.550066    23A      0.671977  
      24A      0.678785    25A      0.678785    26A      0.743727  
      27A      0.743727    28A      0.755750    29A      0.755751  
      30A      0.808843    31A      0.849064    32A      0.868223  
      33A      0.905428    34A      0.905431    35A      0.967897  
      36A      0.969085    37A      0.969086    38A      1.064994  
      39A      1.075625    40A      1.075626    41A      1.151154  
      42A      1.151154    43A      1.240906    44A      1.310927  
      45A      1.330042    46A      1.330042    47A      1.406273  
      48A      1.446628    49A      1.446630    50A      1.447808  
      51A      1.448819    52A      1.449601    53A      1.449601  
      54A      1.466534    55A      1.570789    56A      1.745833  
      57A      1.745835    58A      1.860273    59A      1.868812  
      60A      1.868812    61A      1.964702    62A      1.964708  
      63A      2.019506    64A      2.135310    65A      2.291233  
      66A      2.291236    67A      2.342771    68A      2.361298  
      69A      2.361299    70A      2.395644    71A      2.420428  
      72A      2.420429    73A      2.423618    74A      2.469868  
      75A      2.469869    76A      2.483736    77A      2.495588  
      78A      2.495589    79A      2.590840    80A      2.590844  
      81A      2.641923    82A      2.641924    83A      2.706295  
      84A      2.706301    85A      2.729176    86A      2.885799  
      87A      2.897771    88A      2.897772    89A      2.927461  
      90A      2.972512    91A      2.972516    92A      3.030246  
      93A      3.107685    94A      3.107688    95A      3.120197  
      96A      3.193774    97A      3.193779    98A      3.232126  
      99A      3.375944   100A      3.375947   101A      3.401427  
     102A      3.563980   103A      3.586129   104A      3.586425  
     105A      3.589157   106A      3.589157   107A      3.640231  
     108A      3.640233   109A      3.770089   110A      3.787600  
     111A      3.787602   112A      3.913424   113A      3.992578  
     114A      3.992583   115A      4.190321   116A      4.196915  
     117A      4.358348   118A      4.358349   119A      4.483288  
     120A      4.483290   121A      4.509857   122A      4.509858  
     123A      4.522145   124A      4.522145   125A      4.595234  
     126A      4.595236   127A      4.603331   128A      4.625043  
     129A      4.643305   130A      4.643313   131A      4.718415  
     132A      4.763012   133A      4.763014   134A      5.183581  
     135A      5.393275   136A      5.460662   137A      5.460665  
     138A      5.716443   139A      6.170135   140A      6.170138  
     141A      6.267448   142A      6.267455   143A      6.327485  
     144A      6.382347   145A      6.387777   146A      6.387788  
     147A      6.387987   148A      6.413790   149A      6.715272  
     150A      6.715274   151A      6.789504   152A      6.861541  
     153A      6.861544   154A      6.907271   155A      6.955331  
     156A      6.955334   157A      6.996284   158A      6.996284  
     159A      7.142940   160A      7.163028   161A      7.163031  
     162A      7.265951   163A      7.385698   164A      7.385709  
     165A      7.495692   166A      7.614833   167A      7.614837  
     168A      7.680607   169A      7.684914   170A      7.684915  
     171A      7.752602   172A      7.752607   173A      7.835144  
     174A      8.002638   175A      8.002640   176A      8.042584  
     177A      8.125282   178A      8.147523   179A      8.147527  
     180A      8.295795   181A      8.356514   182A      8.356520  
     183A      8.462302   184A      8.514217   185A      8.514227  
     186A      8.517378   187A      8.628024   188A      8.659054  
     189A      8.713127   190A      8.713131   191A      8.815898  
     192A      8.870631   193A      8.870632   194A      8.950984  
     195A      8.950988   196A      9.035423   197A      9.035426  
     198A      9.041290   199A      9.188320   200A      9.188325  
     201A      9.258753   202A      9.540536   203A      9.540539  
     204A      9.613331   205A      9.613335   206A      9.881061  
     207A      9.965105   208A      9.965108   209A     10.054188  
     210A     10.142551   211A     10.142552   212A     10.313167  
     213A     10.404840   214A     10.546684   215A     10.546687  
     216A     10.613317   217A     10.975352   218A     10.975352  
     219A     11.034503   220A     11.539856   221A     11.650316  
     222A     11.713372   223A     11.713386   224A     12.142074  
     225A     12.142423   226A     12.142427   227A     12.326140  
     228A     12.326170   229A     12.471058   230A     13.003000  
     231A     14.872721   232A     14.872726   233A     15.744435  
     234A     28.710270   235A     28.710270   236A     28.958065  
     237A     29.310526   238A     35.264817   239A     35.264817  
     240A     35.442363   241A     35.442364   242A     36.067692  
     243A     39.456244   244A     64.629755   245A    141.549739  
     246A    165.020469   247A    165.020469   248A    165.381853  
     249A    200.580043   250A    325.191937   251A    874.462110  
     252A   3948.572464  

    Final Occupation by Irrep:
              A 
    DOCC [     5 ]
    NA   [     5 ]
    NB   [     5 ]

  @DF-RHF Final Energy:   -56.22445874330825

   => Energetics <=

    Nuclear Repulsion Energy =             11.9458086627415234
    One-Electron Energy =                 -99.6135072359641498
    Two-Electron Energy =                  31.4432398299143792
    Total Energy =                        -56.2244587433082472

Computation Completed


Properties will be evaluated at   0.000000,   0.000000,   0.000000 [a0]

Properties computed using the SCF density matrix


 Multipole Moments:

 ------------------------------------------------------------------------------------
     Multipole            Electronic (a.u.)      Nuclear  (a.u.)        Total (a.u.)
 ------------------------------------------------------------------------------------

 L = 1.  Multiply by 2.5417464519 to convert [e a0] to [Debye]
 Dipole X            :         -0.0006046            0.0006003           -0.0000043
 Dipole Y            :         52.6849448          -53.2910169           -0.6060721
 Dipole Z            :          0.0000000            0.0000000            0.0000000
 Magnitude           :                                                    0.6060721

 ------------------------------------------------------------------------------------

*** tstop() called on cmpsrv002 at Thu Sep 19 14:23:57 2024
Module time:
	user time   =      12.12 seconds =       0.20 minutes
	system time =       0.92 seconds =       0.02 minutes
	total time  =        149 seconds =       2.48 minutes
Total time:
	user time   =      38.81 seconds =       0.65 minutes
	system time =       3.97 seconds =       0.07 minutes
	total time  =        469 seconds =       7.82 minutes

         ---------------------------------------------------------
                        SAPT(DFT): delta HF Segment                

                   by Daniel G. A. Smith and Rob Parrish           
         ---------------------------------------------------------


  ==> Preparing SAPT Data Cache <== 

  ==> DiskDFJK: Density-Fitted J/K Matrices <==

    J tasked:                  Yes
    K tasked:                  Yes
    wK tasked:                  No
    OpenMP threads:              4
    Integrals threads:           4
    Memory [MiB]:             5722
    Algorithm:                Core
    Integral Cache:           SAVE
    Schwarz Cutoff:          1E-12
    Fitting Condition:       1E-10

   => Auxiliary Basis Set <=

  Basis Set: (THIS_BASIS AUX)
    Blend: DEF2-UNIVERSAL-JKFIT
    Number of shells: 109
    Number of basis functions: 415
    Number of Cartesian functions: 544
    Spherical Harmonics?: true
    Max angular momentum: 5


  ==> E10 Electostatics <== 

    Elst10,r                        -28.71619582 [mEh]

  ==> E10 Exchange <== 

    Exch10(S^2)                      36.89477854 [mEh]
    Exch10                           38.05219441 [mEh]

  ==> E20 Induction <== 

   => Uncoupled Induction <= 

    Ind20,u (A<-B)                   -5.73357953 [mEh]
    Ind20,u (A->B)                  -10.73592120 [mEh]
    Ind20,u                         -16.46950073 [mEh]
    Exch-Ind20,u (A<-B)               3.51833342 [mEh]
    Exch-Ind20,u (A->B)               6.04572142 [mEh]
    Exch-Ind20,u                      9.56405484 [mEh]
    Exch-Ind20,u (A<-B) (S^inf)       3.75458726 [mEh]
    Exch-Ind20,u (A->B) (S^inf)       6.52420298 [mEh]
    Exch-Ind20,u (S^inf)             10.27879025 [mEh]

   => Coupled Induction <= 

   ---------------------------------------------------
              SAPT Coupled Induction Solver           
   ---------------------------------------------------
    Maxiter             =          20
    Convergence         =   1.000E-06
   ---------------------------------------------------
     Iter       (A<-B)           (B->A)      Time [s]
   ---------------------------------------------------
    Guess    1.319939e-01     1.407202e-01          0
        1    4.395996e-02     3.823109e-02          0
        2    1.091456e-02     1.145908e-02          0
        3    5.278860e-03     3.336595e-03          0
        4    6.201870e-04     6.927845e-04          0
        5    8.140268e-05     1.124162e-04          0
        6    1.272352e-05     1.644623e-05          0
        7    2.418458e-06     3.040406e-06          1
        8    3.489195e-07*    5.998300e-07*         1
   ---------------------------------------------------

    Ind20,r (A<-B)                   -6.46705008 [mEh]
    Ind20,r (A->B)                  -13.66085802 [mEh]
    Ind20,r                         -20.12790810 [mEh]
    Exch-Ind20,r (A<-B)               4.14274093 [mEh]
    Exch-Ind20,r (A->B)               8.07037932 [mEh]
    Exch-Ind20,r                     12.21312025 [mEh]
    Exch-Ind20,r (A<-B) (S^inf)       4.42595270 [mEh]
    Exch-Ind20,r (A->B) (S^inf)       8.74104833 [mEh]
    Exch-Ind20,r (S^inf)             13.16700103 [mEh]

   Partial SAPT(HF) Results, to compute Delta HF (dHF)
  ---------------------------------------------------------------------------------------------------------
    Electrostatics                  -28.71619582 [mEh]    -18.01968493 [kcal/mol]    -75.39436174 [kJ/mol]
      Elst10,r                      -28.71619582 [mEh]    -18.01968493 [kcal/mol]    -75.39436174 [kJ/mol]

    Exchange                         38.05219441 [mEh]     23.87811249 [kcal/mol]     99.90602267 [kJ/mol]
      Exch10                         38.05219441 [mEh]     23.87811249 [kcal/mol]     99.90602267 [kJ/mol]
      Exch10(S^2)                    36.89477854 [mEh]     23.15182307 [kcal/mol]     96.86722771 [kJ/mol]

    Induction (no dHF)               -7.91478785 [mEh]     -4.96660436 [kcal/mol]    -20.78027263 [kJ/mol]
      Ind20,r                       -20.12790810 [mEh]    -12.63045302 [kcal/mol]    -52.84581544 [kJ/mol]
      Exch-Ind20,r                   12.21312025 [mEh]      7.66384866 [kcal/mol]     32.06554280 [kJ/mol]
      Induction (A<-B) (no dHF)      -2.32430916 [mEh]     -1.45852602 [kcal/mol]     -6.10247285 [kJ/mol]
      Induction (A->B) (no dHF)      -5.59047869 [mEh]     -3.50807834 [kcal/mol]    -14.67779979 [kJ/mol]

    Subtotal SAPT(HF)                 1.42121074 [mEh]      0.89182321 [kcal/mol]      3.73138829 [kJ/mol]
    Total HF                         -9.15135070 [mEh]     -5.74255926 [kcal/mol]    -24.02686795 [kJ/mol]
    Delta HF                        -10.57256144 [mEh]     -6.63438247 [kcal/mol]    -27.75825624 [kJ/mol]
  ---------------------------------------------------------------------------------------------------------
   Partial SAPT(HF) Results, alternate SAPT0-like display
  ---------------------------------------------------------------------------------------------------------
    Induction                       -18.48734929 [mEh]    -11.60098683 [kcal/mol]    -48.53852888 [kJ/mol]
      Ind20,r                       -20.12790810 [mEh]    -12.63045302 [kcal/mol]    -52.84581544 [kJ/mol]
      Exch-Ind20,r                   12.21312025 [mEh]      7.66384866 [kcal/mol]     32.06554280 [kJ/mol]
      delta HF,r (2)                -10.57256144 [mEh]     -6.63438247 [kcal/mol]    -27.75825624 [kJ/mol]
      Induction (A<-B)               -5.42911775 [mEh]     -3.40682283 [kcal/mol]    -14.25414670 [kJ/mol]
      Induction (A->B)              -13.05823154 [mEh]     -8.19416400 [kcal/mol]    -34.28438218 [kJ/mol]
  ---------------------------------------------------------------------------------------------------------
   => Libint2 <=

    Primary   basis highest AM E, G, H:  6, 6, 3
    Auxiliary basis highest AM E, G, H:  7, 7, 4
    Onebody   basis highest AM E, G, H:  -, -, -
    Solid Harmonics ordering:            Gaussian

*** tstart() called on cmpsrv002
*** at Thu Sep 19 14:23:59 2024

   => Loading Basis Set <=

    Name: THIS_BASIS
    Role: ORBITAL
    Keyword: BASIS
    atoms 1, 4-6 entry H          line    15 file /home/vance/anaconda3/envs/p4env/share/psi4/basis/def2-qzvp.gbs 
    atoms 2      entry BR         line  2253 file /home/vance/anaconda3/envs/p4env/share/psi4/basis/def2-qzvp.gbs 
    atoms 3      entry N          line   242 file /home/vance/anaconda3/envs/p4env/share/psi4/basis/def2-qzvp.gbs 


         ---------------------------------------------------------
                          SAPT(DFT): DFT Monomer A                 
         ---------------------------------------------------------
                                   SCF
               by Justin Turney, Rob Parrish, Andy Simmonett
                          and Daniel G. A. Smith
                              RKS Reference
                        4 Threads,   7629 MiB Core
         ---------------------------------------------------------

  ==> Geometry <==

    Molecular point group: c1
    Full point group: Cs

    Geometry (in Angstrom), charge = 0, multiplicity = 1:

       Center              X                  Y                   Z               Mass       
    ------------   -----------------  -----------------  -----------------  -----------------
         H            0.000022767418    -0.903570165597     0.000000000000     1.007825032230
         BR          -0.000007232582     0.610649834403     0.000000000000    78.918337600000
      Gh(N)           0.000032767418    -2.714300165597     0.000000000000    14.003074004430
      Gh(H)          -0.474347232582    -3.066760165597     0.821650000000     1.007825032230
      Gh(H)          -0.474347232582    -3.066760165597    -0.821650000000     1.007825032230
      Gh(H)           0.948782767418    -3.066770165597     0.000000000000     1.007825032230

  Running in c1 symmetry.

  Rotational constants: A =      6.19413  B =      0.10329  C =      0.10329 [cm^-1]
  Rotational constants: A = 185695.44928  B =   3096.41554  C =   3096.41519 [MHz]
  Nuclear repulsion =   12.231513498576831

  Charge       = 0
  Multiplicity = 1
  Electrons    = 36
  Nalpha       = 18
  Nbeta        = 18

  ==> Algorithm <==

  SCF Algorithm Type is DF.
  DIIS enabled.
  MOM disabled.
  Fractional occupation disabled.
  Guess Type is SAD.
  Energy threshold   = 1.00e-08
  Density threshold  = 1.00e-08
  Integral threshold = 1.00e-12

  ==> Primary Basis <==

  Basis Set: THIS_BASIS
    Blend: DEF2-QZVP
    Number of shells: 82
    Number of basis functions: 252
    Number of Cartesian functions: 303
    Spherical Harmonics?: true
    Max angular momentum: 4

  ==> DFT Potential <==

   => LibXC <=

    Version 6.2.2
    S. Lehtola, C. Steigemann, M. J.T. Oliveira, and M. A.L. Marques.,  SoftwareX 7, 15 (2018) (10.1016/j.softx.2017.11.002)

   => Composite Functional: PBE0 <= 

    PBE0 Hyb-GGA Exchange-Correlation Functional

    C. Adamo and V. Barone.,  J. Chem. Phys. 110, 6158 (1999) (10.1063/1.478522)
    M. Ernzerhof and G. E. Scuseria.,  J. Chem. Phys. 110, 5029 (1999) (10.1063/1.478401)

    Deriv               =              1
    GGA                 =           TRUE
    Meta                =          FALSE

    Exchange Hybrid     =           TRUE
    MP2 Hybrid          =          FALSE

   => Exchange Functionals <=

    0.7500   Perdew, Burke & Ernzerhof

   => Exact (HF) Exchange <=

    0.2500               HF 

   => Correlation Functionals <=

    1.0000   Perdew, Burke & Ernzerhof

   => LibXC Density Thresholds  <==

    XC_HYB_GGA_XC_PBEH:  1.00E-15 

   => Asymptotic Correction <=

    X Functional        =    XC_GGA_X_LB
    C Functional        =   XC_LDA_C_VWN
    Bulk Shift          =       0.106591
    GRAC Alpha          =       0.500000
    GRAC Beta           =      40.000000

   => Molecular Quadrature <=

    Radial Scheme          =       TREUTLER
    Pruning Scheme         =           NONE
    Nuclear Scheme         =       TREUTLER

    Blocking Scheme        =         OCTREE
    BS radius alpha        =              1
    Pruning alpha          =              1
    Radial Points          =             75
    Spherical Points       =            302
    Total Points           =         130340
    Total Blocks           =           1047
    Max Points             =            255
    Max Functions          =            239
    Weights Tolerance      =       1.00E-15

   => Loading Basis Set <=

    Name: (THIS_BASIS AUX)
    Role: JKFIT
    Keyword: DF_BASIS_SCF
    atoms 1, 4-6 entry H          line    18 file /home/vance/anaconda3/envs/p4env/share/psi4/basis/def2-universal-jkfit.gbs 
    atoms 2      entry BR         line  3124 file /home/vance/anaconda3/envs/p4env/share/psi4/basis/def2-universal-jkfit.gbs 
    atoms 3      entry N          line   258 file /home/vance/anaconda3/envs/p4env/share/psi4/basis/def2-universal-jkfit.gbs 

  ==> Integral Setup <==

  ==> DiskDFJK: Density-Fitted J/K Matrices <==

    J tasked:                  Yes
    K tasked:                  Yes
    wK tasked:                  No
    OpenMP threads:              4
    Integrals threads:           4
    Memory [MiB]:             4982
    Algorithm:                Core
    Integral Cache:           SAVE
    Schwarz Cutoff:          1E-12
    Fitting Condition:       1E-10

   => Auxiliary Basis Set <=

  Basis Set: (THIS_BASIS AUX)
    Blend: DEF2-UNIVERSAL-JKFIT
    Number of shells: 109
    Number of basis functions: 415
    Number of Cartesian functions: 544
    Spherical Harmonics?: true
    Max angular momentum: 5

  Cached 100.0% of DFT collocation blocks in 0.722 [GiB].

  Minimum eigenvalue in the overlap matrix is 1.1498141546E-04.
  Reciprocal condition number of the overlap matrix is 1.3869517061E-05.
    Using symmetric orthogonalization.

  ==> Pre-Iterations <==

  SCF Guess: Superposition of Atomic Densities via on-the-fly atomic UHF (no occupation information).

   -------------------------
    Irrep   Nso     Nmo    
   -------------------------
     A        252     252 
   -------------------------
    Total     252     252
   -------------------------

  ==> Iterations <==

                           Total Energy        Delta E     RMS |[F,P]|

   @DF-RKS iter SAD: -2572.87175410410191   -2.57287e+03   0.00000e+00 
   @DF-RKS iter   1: -2574.05673354060264   -1.18498e+00   8.57725e-03 DIIS/ADIIS
   @DF-RKS iter   2: -2573.97407074400917    8.26628e-02   9.00098e-03 DIIS/ADIIS
   @DF-RKS iter   3: -2574.50577841424183   -5.31708e-01   2.44552e-04 DIIS/ADIIS
   @DF-RKS iter   4: -2574.50663208607966   -8.53672e-04   2.04144e-04 DIIS/ADIIS
   @DF-RKS iter   5: -2574.50814447589255   -1.51239e-03   1.25444e-05 DIIS
   @DF-RKS iter   6: -2574.50814641324087   -1.93735e-06   2.09588e-06 DIIS
   @DF-RKS iter   7: -2574.50814666523775   -2.51997e-07   8.71734e-08 DIIS
   @DF-RKS iter   8: -2574.50814665802363    7.21411e-09   7.67144e-09 DIIS
  Energy and wave function converged.


  ==> Post-Iterations <==

   Electrons on quadrature grid:
      Ntotal   =   35.9999983917 ; deviation = -1.608e-06 

    Orbital Energies [Eh]
    ---------------------

    Doubly Occupied:                                                      

       1A   -483.380979     2A    -62.767790     3A    -56.542741  
       4A    -56.539135     5A    -56.539135     6A     -8.893443  
       7A     -6.703944     8A     -6.692838     9A     -6.692838  
      10A     -2.789666    11A     -2.786227    12A     -2.786227  
      13A     -2.777142    14A     -2.777141    15A     -0.912024  
      16A     -0.554579    17A     -0.427407    18A     -0.427407  

    Virtual:                                                              

      19A     -0.141759    20A     -0.019775    21A      0.016096  
      22A      0.023124    23A      0.023131    24A      0.077723  
      25A      0.096698    26A      0.096699    27A      0.133602  
      28A      0.133605    29A      0.203497    30A      0.214966  
      31A      0.214966    32A      0.232145    33A      0.249463  
      34A      0.249464    35A      0.336180    36A      0.420748  
      37A      0.420750    38A      0.464684    39A      0.490175  
      40A      0.490175    41A      0.587406    42A      0.644860  
      43A      0.644864    44A      0.708739    45A      0.778675  
      46A      0.803654    47A      0.803655    48A      0.816273  
      49A      0.830745    50A      0.865883    51A      0.865883  
      52A      0.890878    53A      0.891018    54A      0.939869  
      55A      0.939872    56A      0.946530    57A      0.946531  
      58A      0.989593    59A      0.989601    60A      0.990033  
      61A      1.070485    62A      1.153938    63A      1.159494  
      64A      1.159497    65A      1.212808    66A      1.212812  
      67A      1.327054    68A      1.327054    69A      1.330122  
      70A      1.330123    71A      1.336578    72A      1.348486  
      73A      1.452337    74A      1.486249    75A      1.486250  
      76A      1.698029    77A      1.847957    78A      1.847966  
      79A      1.930466    80A      1.997553    81A      1.997554  
      82A      2.096245    83A      2.165261    84A      2.165262  
      85A      2.293553    86A      2.306372    87A      2.306372  
      88A      2.348399    89A      2.377885    90A      2.377885  
      91A      2.441301    92A      2.441304    93A      2.441865  
      94A      2.534977    95A      2.534979    96A      2.555446  
      97A      2.577224    98A      2.577293    99A      2.593735  
     100A      2.593735   101A      2.609247   102A      2.609247  
     103A      2.631695   104A      2.631924   105A      2.660256  
     106A      2.660258   107A      2.691173   108A      2.743988  
     109A      2.743989   110A      2.773681   111A      2.773681  
     112A      2.852688   113A      2.855280   114A      2.855281  
     115A      2.889606   116A      2.941700   117A      2.941702  
     118A      3.056882   119A      3.175112   120A      3.209018  
     121A      3.209019   122A      3.306794   123A      3.319436  
     124A      3.319437   125A      3.401357   126A      3.461149  
     127A      3.474537   128A      3.474538   129A      3.628814  
     130A      3.628815   131A      3.634657   132A      3.792292  
     133A      3.814248   134A      3.814249   135A      3.928614  
     136A      3.928617   137A      4.119218   138A      4.229307  
     139A      4.263050   140A      4.367564   141A      4.394432  
     142A      4.394436   143A      4.834200   144A      4.834200  
     145A      4.915158   146A      4.915163   147A      4.978637  
     148A      4.978638   149A      5.081005   150A      5.263030  
     151A      5.651854   152A      5.658041   153A      5.842784  
     154A      5.842793   155A      5.970642   156A      5.970656  
     157A      6.235995   158A      6.285319   159A      6.285321  
     160A      6.338141   161A      6.338150   162A      6.425581  
     163A      6.563300   164A      6.563308   165A      6.705196  
     166A      6.705208   167A      6.828435   168A      7.043809  
     169A      7.043811   170A      7.058622   171A      7.255312  
     172A      7.255320   173A      7.267951   174A      7.517457  
     175A      7.518029   176A      7.589703   177A      7.589705  
     178A      7.701970   179A      7.701979   180A      7.808736  
     181A      7.808999   182A      7.821954   183A      7.919384  
     184A      8.032722   185A      8.035462   186A      8.035470  
     187A      8.215952   188A      8.292154   189A      8.292156  
     190A      8.394190   191A      8.442029   192A      8.442030  
     193A      8.485008   194A      8.485016   195A      8.621060  
     196A      8.636262   197A      8.636272   198A      8.654763  
     199A      8.854947   200A      8.865424   201A      8.865429  
     202A      9.011155   203A      9.076623   204A      9.076640  
     205A      9.079323   206A      9.157286   207A      9.192850  
     208A      9.192856   209A      9.346858   210A      9.360115  
     211A      9.590907   212A      9.590911   213A      9.662566  
     214A      9.832501   215A      9.928382   216A      9.928384  
     217A     10.092385   218A     10.092397   219A     10.148554  
     220A     10.546159   221A     10.546166   222A     10.867306  
     223A     10.867308   224A     11.040448   225A     11.565156  
     226A     11.649586   227A     11.649589   228A     12.209726  
     229A     12.209758   230A     12.636942   231A     13.506277  
     232A     13.506277   233A     13.537451   234A     13.715738  
     235A     13.715753   236A     13.863351   237A     14.035510  
     238A     14.129779   239A     14.129795   240A     14.422897  
     241A     14.422914   242A     14.467193   243A     15.971020  
     244A     18.098489   245A     18.098513   246A     25.377096  
     247A     29.100206   248A     70.140954   249A     94.814945  
     250A    318.515152   251A    321.738064   252A   1819.266193  

    Final Occupation by Irrep:
              A 
    DOCC [    18 ]
    NA   [    18 ]
    NB   [    18 ]

  @DF-RKS Final Energy: -2574.50814665802363

   => Energetics <=

    Nuclear Repulsion Energy =             12.2315134985768310
    One-Electron Energy =               -3607.2508238835002885
    Two-Electron Energy =                1089.3927365758306678
    DFT Exchange-Correlation Energy =     -68.8815728489311425
    Empirical Dispersion Energy =           0.0000000000000000
    VV10 Nonlocal Energy =                  0.0000000000000000
    Total Energy =                      -2574.5081466580236338

Computation Completed


Properties will be evaluated at   0.000000,   0.000000,   0.000000 [a0]

Properties computed using the SCF density matrix


 Multipole Moments:

 ------------------------------------------------------------------------------------
     Multipole            Electronic (a.u.)      Nuclear  (a.u.)        Total (a.u.)
 ------------------------------------------------------------------------------------

 L = 1.  Multiply by 2.5417464519 to convert [e a0] to [Debye]
 Dipole X            :          0.0004466           -0.0004353            0.0000112
 Dipole Y            :        -39.0585274           38.6811329           -0.3773944
 Dipole Z            :          0.0000000            0.0000000            0.0000000
 Magnitude           :                                                    0.3773944

 ------------------------------------------------------------------------------------

*** tstop() called on cmpsrv002 at Thu Sep 19 14:26:17 2024
Module time:
	user time   =      20.13 seconds =       0.34 minutes
	system time =       1.54 seconds =       0.03 minutes
	total time  =        138 seconds =       2.30 minutes
Total time:
	user time   =      66.83 seconds =       1.11 minutes
	system time =       5.62 seconds =       0.09 minutes
	total time  =        609 seconds =      10.15 minutes
   => Libint2 <=

    Primary   basis highest AM E, G, H:  6, 6, 3
    Auxiliary basis highest AM E, G, H:  7, 7, 4
    Onebody   basis highest AM E, G, H:  -, -, -
    Solid Harmonics ordering:            Gaussian

*** tstart() called on cmpsrv002
*** at Thu Sep 19 14:26:17 2024

   => Loading Basis Set <=

    Name: THIS_BASIS
    Role: ORBITAL
    Keyword: BASIS
    atoms 1, 4-6 entry H          line    15 file /home/vance/anaconda3/envs/p4env/share/psi4/basis/def2-qzvp.gbs 
    atoms 2      entry BR         line  2253 file /home/vance/anaconda3/envs/p4env/share/psi4/basis/def2-qzvp.gbs 
    atoms 3      entry N          line   242 file /home/vance/anaconda3/envs/p4env/share/psi4/basis/def2-qzvp.gbs 


         ---------------------------------------------------------
                          SAPT(DFT): DFT Monomer B                 
         ---------------------------------------------------------
                                   SCF
               by Justin Turney, Rob Parrish, Andy Simmonett
                          and Daniel G. A. Smith
                              RKS Reference
                        4 Threads,   7629 MiB Core
         ---------------------------------------------------------

  ==> Geometry <==

    Molecular point group: c1
    Full point group: Cs

    Geometry (in Angstrom), charge = 0, multiplicity = 1:

       Center              X                  Y                   Z               Mass       
    ------------   -----------------  -----------------  -----------------  -----------------
      Gh(H)           0.000022767418    -0.903570165597     0.000000000000     1.007825032230
      Gh(BR)         -0.000007232582     0.610649834403     0.000000000000    78.918337600000
         N            0.000032767418    -2.714300165597     0.000000000000    14.003074004430
         H           -0.474347232582    -3.066760165597     0.821650000000     1.007825032230
         H           -0.474347232582    -3.066760165597    -0.821650000000     1.007825032230
         H            0.948782767418    -3.066770165597     0.000000000000     1.007825032230

  Running in c1 symmetry.

  Rotational constants: A =      6.19413  B =      0.10329  C =      0.10329 [cm^-1]
  Rotational constants: A = 185695.44928  B =   3096.41554  C =   3096.41519 [MHz]
  Nuclear repulsion =   11.945808662741523

  Charge       = 0
  Multiplicity = 1
  Electrons    = 10
  Nalpha       = 5
  Nbeta        = 5

  ==> Algorithm <==

  SCF Algorithm Type is DF.
  DIIS enabled.
  MOM disabled.
  Fractional occupation disabled.
  Guess Type is SAD.
  Energy threshold   = 1.00e-08
  Density threshold  = 1.00e-08
  Integral threshold = 1.00e-12

  ==> Primary Basis <==

  Basis Set: THIS_BASIS
    Blend: DEF2-QZVP
    Number of shells: 82
    Number of basis functions: 252
    Number of Cartesian functions: 303
    Spherical Harmonics?: true
    Max angular momentum: 4

  ==> DFT Potential <==

   => LibXC <=

    Version 6.2.2
    S. Lehtola, C. Steigemann, M. J.T. Oliveira, and M. A.L. Marques.,  SoftwareX 7, 15 (2018) (10.1016/j.softx.2017.11.002)

   => Composite Functional: PBE0 <= 

    PBE0 Hyb-GGA Exchange-Correlation Functional

    C. Adamo and V. Barone.,  J. Chem. Phys. 110, 6158 (1999) (10.1063/1.478522)
    M. Ernzerhof and G. E. Scuseria.,  J. Chem. Phys. 110, 5029 (1999) (10.1063/1.478401)

    Deriv               =              1
    GGA                 =           TRUE
    Meta                =          FALSE

    Exchange Hybrid     =           TRUE
    MP2 Hybrid          =          FALSE

   => Exchange Functionals <=

    0.7500   Perdew, Burke & Ernzerhof

   => Exact (HF) Exchange <=

    0.2500               HF 

   => Correlation Functionals <=

    1.0000   Perdew, Burke & Ernzerhof

   => LibXC Density Thresholds  <==

    XC_HYB_GGA_XC_PBEH:  1.00E-15 

   => Asymptotic Correction <=

    X Functional        =    XC_GGA_X_LB
    C Functional        =   XC_LDA_C_VWN
    Bulk Shift          =       0.113162
    GRAC Alpha          =       0.500000
    GRAC Beta           =      40.000000

   => Molecular Quadrature <=

    Radial Scheme          =       TREUTLER
    Pruning Scheme         =           NONE
    Nuclear Scheme         =       TREUTLER

    Blocking Scheme        =         OCTREE
    BS radius alpha        =              1
    Pruning alpha          =              1
    Radial Points          =             75
    Spherical Points       =            302
    Total Points           =         130340
    Total Blocks           =           1047
    Max Points             =            255
    Max Functions          =            239
    Weights Tolerance      =       1.00E-15

   => Loading Basis Set <=

    Name: (THIS_BASIS AUX)
    Role: JKFIT
    Keyword: DF_BASIS_SCF
    atoms 1, 4-6 entry H          line    18 file /home/vance/anaconda3/envs/p4env/share/psi4/basis/def2-universal-jkfit.gbs 
    atoms 2      entry BR         line  3124 file /home/vance/anaconda3/envs/p4env/share/psi4/basis/def2-universal-jkfit.gbs 
    atoms 3      entry N          line   258 file /home/vance/anaconda3/envs/p4env/share/psi4/basis/def2-universal-jkfit.gbs 

  ==> Integral Setup <==

  ==> DiskDFJK: Density-Fitted J/K Matrices <==

    J tasked:                  Yes
    K tasked:                  Yes
    wK tasked:                  No
    OpenMP threads:              4
    Integrals threads:           4
    Memory [MiB]:             4982
    Algorithm:                Core
    Integral Cache:           SAVE
    Schwarz Cutoff:          1E-12
    Fitting Condition:       1E-10

   => Auxiliary Basis Set <=

  Basis Set: (THIS_BASIS AUX)
    Blend: DEF2-UNIVERSAL-JKFIT
    Number of shells: 109
    Number of basis functions: 415
    Number of Cartesian functions: 544
    Spherical Harmonics?: true
    Max angular momentum: 5

  Cached 100.0% of DFT collocation blocks in 0.722 [GiB].

  Minimum eigenvalue in the overlap matrix is 1.1498141546E-04.
  Reciprocal condition number of the overlap matrix is 1.3869517061E-05.
    Using symmetric orthogonalization.

  ==> Pre-Iterations <==

  SCF Guess: Superposition of Atomic Densities via on-the-fly atomic UHF (no occupation information).

   -------------------------
    Irrep   Nso     Nmo    
   -------------------------
     A        252     252 
   -------------------------
    Total     252     252
   -------------------------

  ==> Iterations <==

                           Total Energy        Delta E     RMS |[F,P]|

   @DF-RKS iter SAD:   -56.06908514439485   -5.60691e+01   0.00000e+00 
   @DF-RKS iter   1:   -56.28002657051536   -2.10941e-01   3.08543e-03 DIIS/ADIIS
   @DF-RKS iter   2:   -56.02027276859930    2.59754e-01   4.04397e-03 DIIS/ADIIS
   @DF-RKS iter   3:   -56.51871600178197   -4.98443e-01   2.15605e-04 DIIS/ADIIS
   @DF-RKS iter   4:   -56.52018993137087   -1.47393e-03   1.86743e-05 DIIS
   @DF-RKS iter   5:   -56.52019701183811   -7.08047e-06   4.97085e-06 DIIS
   @DF-RKS iter   6:   -56.52019707490448   -6.30664e-08   1.94911e-07 DIIS
   @DF-RKS iter   7:   -56.52019703716649    3.77380e-08   2.50116e-08 DIIS
   @DF-RKS iter   8:   -56.52019702800223    9.16426e-09   2.88904e-09 DIIS
  Energy and wave function converged.


  ==> Post-Iterations <==

   Electrons on quadrature grid:
      Ntotal   =    9.9999942830 ; deviation = -5.717e-06 

    Orbital Energies [Eh]
    ---------------------

    Doubly Occupied:                                                      

       1A    -14.471561     2A     -0.987140     3A     -0.590895  
       4A     -0.590895     5A     -0.391573  

    Virtual:                                                              

       6A     -0.084376     7A     -0.015603     8A     -0.015601  
       9A      0.009464    10A      0.073941    11A      0.073946  
      12A      0.106902    13A      0.134555    14A      0.134557  
      15A      0.141877    16A      0.251937    17A      0.265563  
      18A      0.271216    19A      0.271218    20A      0.306007  
      21A      0.306009    22A      0.365515    23A      0.499918  
      24A      0.549867    25A      0.549869    26A      0.597545  
      27A      0.597551    28A      0.614587    29A      0.637044  
      30A      0.637066    31A      0.646770    32A      0.681832  
      33A      0.681840    34A      0.698781    35A      0.755302  
      36A      0.756824    37A      0.756828    38A      0.815252  
      39A      0.815260    40A      0.842738    41A      0.922021  
      42A      0.922033    43A      1.006516    44A      1.047595  
      45A      1.047596    46A      1.065344    47A      1.079774  
      48A      1.145055    49A      1.145058    50A      1.249271  
      51A      1.331491    52A      1.331521    53A      1.343130  
      54A      1.343500    55A      1.399714    56A      1.543097  
      57A      1.543098    58A      1.618222    59A      1.669674  
      60A      1.669682    61A      1.780899    62A      1.780901  
      63A      1.867564    64A      1.929091    65A      1.967647  
      66A      1.967652    67A      2.013202    68A      2.040707  
      69A      2.080545    70A      2.080548    71A      2.144625  
      72A      2.144625    73A      2.170932    74A      2.237891  
      75A      2.237894    76A      2.270845    77A      2.270845  
      78A      2.333809    79A      2.347035    80A      2.347038  
      81A      2.362670    82A      2.362676    83A      2.400210  
      84A      2.410428    85A      2.410431    86A      2.521153  
      87A      2.572979    88A      2.572980    89A      2.611552  
      90A      2.687726    91A      2.721299    92A      2.721305  
      93A      2.783279    94A      2.783285    95A      2.834514  
      96A      2.834527    97A      2.840129    98A      2.893008  
      99A      3.070008   100A      3.070008   101A      3.087994  
     102A      3.196561   103A      3.302547   104A      3.302548  
     105A      3.473116   106A      3.473197   107A      3.482373  
     108A      3.482377   109A      3.510687   110A      3.553583  
     111A      3.553587   112A      3.562596   113A      3.677117  
     114A      3.677125   115A      3.789926   116A      3.896738  
     117A      3.948483   118A      3.948488   119A      4.160982  
     120A      4.188421   121A      4.188431   122A      4.328879  
     123A      4.328879   124A      4.401204   125A      4.401379  
     126A      4.409490   127A      4.409507   128A      4.438577  
     129A      4.494407   130A      4.494407   131A      4.577159  
     132A      4.591008   133A      4.591010   134A      4.777919  
     135A      4.967485   136A      4.967487   137A      5.194213  
     138A      5.532536   139A      5.733030   140A      5.733048  
     141A      5.836629   142A      5.836634   143A      5.892362  
     144A      5.921716   145A      5.921730   146A      5.996079  
     147A      6.164972   148A      6.172363   149A      6.286556  
     150A      6.436239   151A      6.436251   152A      6.443826  
     153A      6.523156   154A      6.523157   155A      6.577307  
     156A      6.577316   157A      6.771495   158A      6.771496  
     159A      6.822684   160A      6.852378   161A      6.860324  
     162A      6.860327   163A      6.948299   164A      6.948305  
     165A      7.139239   166A      7.154027   167A      7.154038  
     168A      7.216468   169A      7.216485   170A      7.227935  
     171A      7.446500   172A      7.508353   173A      7.508363  
     174A      7.555966   175A      7.567238   176A      7.567252  
     177A      7.713279   178A      7.713287   179A      7.741141  
     180A      7.819223   181A      7.889026   182A      7.889034  
     183A      7.995284   184A      8.051176   185A      8.057657  
     186A      8.057671   187A      8.158246   188A      8.162465  
     189A      8.215893   190A      8.215897   191A      8.387358  
     192A      8.389768   193A      8.389779   194A      8.517352  
     195A      8.517365   196A      8.555721   197A      8.715370  
     198A      8.715503   199A      8.796559   200A      8.874676  
     201A      8.874679   202A      9.023760   203A      9.023771  
     204A      9.251181   205A      9.251181   206A      9.440730  
     207A      9.485482   208A      9.485485   209A      9.535752  
     210A      9.615875   211A      9.615878   212A      9.773319  
     213A      9.973465   214A      9.973473   215A     10.037608  
     216A     10.108767   217A     10.776276   218A     10.862624  
     219A     10.862624   220A     11.065536   221A     11.114293  
     222A     11.114307   223A     11.397350   224A     11.568444  
     225A     11.568451   226A     11.574024   227A     11.746824  
     228A     11.746850   229A     11.895098   230A     12.885310  
     231A     14.270640   232A     14.270642   233A     15.106064  
     234A     28.598604   235A     28.598604   236A     28.843560  
     237A     29.197818   238A     35.153139   239A     35.153139  
     240A     35.327887   241A     35.327887   242A     35.951849  
     243A     38.286519   244A     64.516931   245A    141.436987  
     246A    164.908345   247A    164.908346   248A    165.271950  
     249A    197.777321   250A    325.078217   251A    874.345043  
     252A   3948.443445  

    Final Occupation by Irrep:
              A 
    DOCC [     5 ]
    NA   [     5 ]
    NB   [     5 ]

  @DF-RKS Final Energy:   -56.52019702800223

   => Energetics <=

    Nuclear Repulsion Energy =             11.9458086627415234
    One-Electron Energy =                 -99.6870425082635592
    Two-Electron Energy =                  37.2640521933139794
    DFT Exchange-Correlation Energy =      -6.0430153757941802
    Empirical Dispersion Energy =           0.0000000000000000
    VV10 Nonlocal Energy =                  0.0000000000000000
    Total Energy =                        -56.5201970280022294

Computation Completed


Properties will be evaluated at   0.000000,   0.000000,   0.000000 [a0]

Properties computed using the SCF density matrix


 Multipole Moments:

 ------------------------------------------------------------------------------------
     Multipole            Electronic (a.u.)      Nuclear  (a.u.)        Total (a.u.)
 ------------------------------------------------------------------------------------

 L = 1.  Multiply by 2.5417464519 to convert [e a0] to [Debye]
 Dipole X            :         -0.0005972            0.0006003            0.0000031
 Dipole Y            :         52.7132688          -53.2910169           -0.5777481
 Dipole Z            :         -0.0000000            0.0000000           -0.0000000
 Magnitude           :                                                    0.5777481

 ------------------------------------------------------------------------------------

*** tstop() called on cmpsrv002 at Thu Sep 19 14:27:57 2024
Module time:
	user time   =      33.08 seconds =       0.55 minutes
	system time =       1.15 seconds =       0.02 minutes
	total time  =        100 seconds =       1.67 minutes
Total time:
	user time   =      99.92 seconds =       1.67 minutes
	system time =       6.77 seconds =       0.11 minutes
	total time  =        709 seconds =      11.82 minutes

         ---------------------------------------------------------
               SAPT(DFT): Intermolecular Interaction Segment       

                   by Daniel G. A. Smith and Rob Parrish           
         ---------------------------------------------------------

  ==> Algorithm <==

   SAPT DFT Functional             PBE0
   Monomer A GRAC Shift        0.106591
   Monomer B GRAC Shift        0.113162
   Delta HF                        True
   JK Algorithm                      DF

  ==> Preparing SAPT Data Cache <== 

  ==> DiskDFJK: Density-Fitted J/K Matrices <==

    J tasked:                  Yes
    K tasked:                  Yes
    wK tasked:                  No
    OpenMP threads:              4
    Integrals threads:           4
    Memory [MiB]:             4982
    Algorithm:                Core
    Integral Cache:           SAVE
    Schwarz Cutoff:          1E-12
    Fitting Condition:       1E-10

   => Auxiliary Basis Set <=

  Basis Set: (THIS_BASIS AUX)
    Blend: DEF2-UNIVERSAL-JKFIT
    Number of shells: 109
    Number of basis functions: 415
    Number of Cartesian functions: 544
    Spherical Harmonics?: true
    Max angular momentum: 5


  ==> E10 Electostatics <== 

    Elst10,r                        -27.60681002 [mEh]

  ==> E10 Exchange <== 

    Exch10(S^2)                      37.45675641 [mEh]
    Exch10                           38.64569928 [mEh]

  ==> E20 Induction <== 

   => Uncoupled Induction <= 

    Ind20,u (A<-B)                   -6.96805820 [mEh]
    Ind20,u (A->B)                  -14.26112673 [mEh]
    Ind20,u                         -21.22918493 [mEh]
    Exch-Ind20,u (A<-B)               4.08342933 [mEh]
    Exch-Ind20,u (A->B)               8.57472317 [mEh]
    Exch-Ind20,u                     12.65815250 [mEh]
    Exch-Ind20,u (A<-B) (S^inf)       4.36232783 [mEh]
    Exch-Ind20,u (A->B) (S^inf)       9.25439021 [mEh]
    Exch-Ind20,u (S^inf)             13.61671804 [mEh]

   => Coupled Induction <= 

   ---------------------------------------------------
              SAPT Coupled Induction Solver           
   ---------------------------------------------------
    Maxiter             =          20
    Convergence         =   1.000E-06
   ---------------------------------------------------
     Iter       (A<-B)           (B->A)      Time [s]
   ---------------------------------------------------
    Guess    2.232866e-01     1.094038e-01          4
        1    3.832059e-02     4.025357e-02          8
        2    1.832067e-02     1.458719e-02         15
        3    2.725275e-03     1.278611e-03         22
        4    1.385305e-04     1.064277e-04         27
        5    3.945744e-05     6.386395e-06         30
        6    3.323601e-06     6.289795e-07*        33
        7    3.180556e-07*    6.289795e-07*        34
   ---------------------------------------------------

    Ind20,r (A<-B)                   -6.68827067 [mEh]
    Ind20,r (A->B)                  -15.23769786 [mEh]
    Ind20,r                         -21.92596854 [mEh]
    Exch-Ind20,r (A<-B)               4.60484065 [mEh]
    Exch-Ind20,r (A->B)               9.51636840 [mEh]
    Exch-Ind20,r                     14.12120905 [mEh]
    Exch-Ind20,r (A<-B) (S^inf)       4.92417915 [mEh]
    Exch-Ind20,r (A->B) (S^inf)      10.28111874 [mEh]
    Exch-Ind20,r (S^inf)             15.20529789 [mEh]
   => Loading Basis Set <=

    Name: (THIS_BASIS AUX)
    Role: RIFIT
    Keyword: DF_BASIS_MP2
    atoms 1, 4-6 entry H          line    23 file /home/vance/anaconda3/envs/p4env/share/psi4/basis/def2-qzvp-ri.gbs 
    atoms 2      entry BR         line  2543 file /home/vance/anaconda3/envs/p4env/share/psi4/basis/def2-qzvp-ri.gbs 
    atoms 3      entry N          line   337 file /home/vance/anaconda3/envs/p4env/share/psi4/basis/def2-qzvp-ri.gbs 



  ==> E20 Dispersion (CHF FDDS) <== 

   Legendre Points:          10
   Lambda Shift:          0.300
   Fxc Kernal:             ALDA
   (P|Fxc|Q) Thresh:  1.000e-06
  DFHelper Memory: AOs need 0.446 GiB; user supplied 5.960 GiB. 
  Using in-core AOs.

  ==> DFHelper <==
    NBF:                             252
    NAux:                            961
    Schwarz Cutoff:                1E-12
    Mask sparsity (%):                 8
    DFH Avail. Memory [GiB]:       5.960
    OpenMP threads:                    4
    Algorithm:                    DIRECT
    AO Core:                        True
    MO Core:                       False
    Hold Metric:                   False
    Metric Power:                  0.000
    Fitting Condition:             1E-12
    Q Shell Max:                      13


  DFHelper Memory: AOs need 0.482 GiB; user supplied 5.960 GiB. 
  Using in-core AOs.


   => Time Integration <= 

       Omega       Weight       Disp20,u         Disp20   time [s]
   2.269e+01    6.667e-02      1.877e-04      1.760e-04          5
   4.147e+00    1.495e-01      3.442e-03      3.081e-03          8
   1.572e+00    2.191e-01      1.083e-02      8.962e-03         10
   7.589e-01    2.693e-01      1.866e-02      1.392e-02         12
   4.049e-01    2.955e-01      2.121e-02      1.463e-02         14
   2.223e-01    2.955e-01      1.774e-02      1.171e-02         16
   1.186e-01    2.693e-01      1.236e-02      8.104e-03         17
   5.727e-02    2.191e-01      7.775e-03      5.073e-03         19
   2.170e-02    1.495e-01      4.371e-03      2.848e-03         20
   3.966e-03    6.667e-02      1.745e-03      1.137e-03         21

    Disp20,u                        -15.64663546 [mEh]
    Disp20                          -11.08457926 [mEh]

  ==> E20 Dispersion (MP2) <== 


    Disp20 (MP2)                    -15.62525778 [mEh]
    Exch-Disp20,u                     3.27433656 [mEh]
    Scaling Scheme                    FIXED
    Scaling Factor                    0.770
    Est. Exch-Disp20,r                2.52123915 [mEh]

   SAPT(DFT) Results
  ---------------------------------------------------------------------------------------------------------
    Electrostatics                  -27.60681002 [mEh]    -17.32353483 [kcal/mol]    -72.48166973 [kJ/mol]
      Elst1,r                       -27.60681002 [mEh]    -17.32353483 [kcal/mol]    -72.48166973 [kJ/mol]

    Exchange                         38.64569928 [mEh]     24.25054242 [kcal/mol]    101.46426949 [kJ/mol]
      Exch1                          38.64569928 [mEh]     24.25054242 [kcal/mol]    101.46426949 [kJ/mol]
      Exch1(S^2)                     37.45675641 [mEh]     23.50446951 [kcal/mol]     98.34270042 [kJ/mol]

    Induction                       -18.37732093 [mEh]    -11.53194299 [kcal/mol]    -48.24964946 [kJ/mol]
      Ind2,r                        -21.92596854 [mEh]    -13.75875298 [kcal/mol]    -57.56662246 [kJ/mol]
      Exch-Ind2,r                    14.12120905 [mEh]      8.86119246 [kcal/mol]     37.07522925 [kJ/mol]
      Induction (A<-B)               -2.08343003 [mEh]     -1.30737208 [kcal/mol]     -5.47004478 [kJ/mol]
      Induction (A->B)               -5.72132946 [mEh]     -3.59018844 [kcal/mol]    -15.02134843 [kJ/mol]
      delta HF,r (2)                -10.57256144 [mEh]     -6.63438247 [kcal/mol]    -27.75825625 [kJ/mol]

    Dispersion                       -8.56333966 [mEh]     -5.37357677 [kcal/mol]    -22.48304519 [kJ/mol]
      Disp2,r                       -11.08457882 [mEh]     -6.95567822 [kcal/mol]    -29.10255767 [kJ/mol]
      Disp2,u                       -15.62525778 [mEh]     -9.80499729 [kcal/mol]    -41.02410864 [kJ/mol]
      Est. Exch-Disp2,r               2.52123915 [mEh]      1.58210145 [kcal/mol]      6.61951249 [kJ/mol]
      Exch-Disp2,u                    3.27433656 [mEh]      2.05467721 [kcal/mol]      8.59676946 [kJ/mol]

    Total SAPT(DFT)                 -15.90177133 [mEh]     -9.97851216 [kcal/mol]    -41.75009488 [kJ/mol]
  ---------------------------------------------------------------------------------------------------------

*** tstop() called on cmpsrv002 at Thu Sep 19 15:22:45 2024
Module time:
	user time   =     363.85 seconds =       6.06 minutes
	system time =      30.58 seconds =       0.51 minutes
	total time  =       3400 seconds =      56.67 minutes
Total time:
	user time   =     429.14 seconds =       7.15 minutes
	system time =      35.78 seconds =       0.60 minutes
	total time  =       4002 seconds =      66.70 minutes

    Psi4 stopped on: Thursday, 19 September 2024 03:22PM
    Psi4 wall time for execution: 1:06:42.14

*** Psi4 exiting successfully. Buy a developer a beer!
