
    -----------------------------------------------------------------------
          Psi4: An Open-Source Ab Initio Electronic Structure Package
                               Psi4 1.9.1 release

                         Git: Rev {} zzzzzzz 


    D. G. A. Smith, L. A. Burns, A. C. Simmonett, R. M. Parrish,
    M. C. Schieber, R. Galvelis, P. Kraus, H. Kruse, R. Di Remigio,
    A. Alenaizan, A. M. James, S. Lehtola, J. P. Misiewicz, M. Scheurer,
    R. A. Shaw, J. B. Schriber, Y. Xie, Z. L. Glick, D. A. Sirianni,
    J. S. O'Brien, J. M. Waldrop, A. Kumar, E. G. Hohenstein,
    B. P. Pritchard, B. R. Brooks, H. F. Schaefer III, A. Yu. Sokolov,
    K. Patkowski, A. E. DePrince III, U. Bozkaya, R. A. King,
    F. A. Evangelista, J. M. Turney, T. D. Crawford, C. D. Sherrill,
    J. Chem. Phys. 152(18) 184108 (2020). https://doi.org/10.1063/5.0006002

                            Additional Code Authors
    E. T. Seidl, C. L. Janssen, E. F. Valeev, M. L. Leininger,
    J. F. Gonthier, R. M. Richard, H. R. McAlexander, M. Saitow, X. Wang,
    P. Verma, M. H. Lechner, A. Jiang, S. Behnle, A. G. Heide,
    M. F. Herbst, and D. L. Poole

             Previous Authors, Complete List of Code Contributors,
                       and Citations for Specific Modules
    https://github.com/psi4/psi4/blob/master/codemeta.json
    https://github.com/psi4/psi4/graphs/contributors
    http://psicode.org/psi4manual/master/introduction.html#citing-psifour

    -----------------------------------------------------------------------


    Psi4 started on: Thursday, 19 September 2024 02:16PM

    Process ID: 605872
    Host:       cmpsrv002
    PSIDATADIR: /home/vance/anaconda3/envs/p4env/share/psi4
    Memory:     500.0 MiB
    Threads:    8
    
  ==> Input File <==

--------------------------------------------------------------------------
#charge=0 charge_a=0 charge_b=0 selection_a=1-2 selection_b=3-6 scaling=0.9 benchmark_Eint=-9.272 benchmark_unit=kcal/mol group=XH-N
set_num_threads(4)
memory 8 GB
basis this_basis {
    assign    def2-qzvp
}

molecule {
     0 1
    --
     0 1
     H        0.00002       -0.93248        0.00000
    Br       -0.00001        0.58174        0.00000
    --
     0 1
     N        0.00003       -2.41398        0.00000
     H       -0.47435       -2.76645        0.82165
     H       -0.47435       -2.76645       -0.82165
     H        0.94878       -2.76645        0.00000
}

set {
    sapt_dft_functional     PBE0
    scf_type                DF
    freeze_core             true
    sapt_dft_grac_shift_a    0.106591
    sapt_dft_grac_shift_b    0.113162
    sapt_dft_do_hybrid      true
    do_ind_exch_sinf        true
    do_disp_exch_sinf       true
}

nrg = energy('sapt(DFT)')
--------------------------------------------------------------------------
  Threads set to 4 by Python driver.

  Memory set to   7.451 GiB by Python driver.

Scratch directory: /scratch2/vance/psi4/

*** tstart() called on cmpsrv002
*** at Thu Sep 19 14:16:08 2024

  SAPT does not make use of molecular symmetry, further calculations in C1 point group.

         ---------------------------------------------------------
                            SAPT(DFT) Procedure                    

                           by Daniel G. A. Smith                   
         ---------------------------------------------------------

Warning! The default value of SAPT_DFT_EXCH_DISP_SCALE_SCHEME has changed from DISP to FIXED. Please be careful comparing results with earlier versions. 

  ==> Algorithm <==

   SAPT DFT Functional             PBE0
   Monomer A GRAC Shift        0.106591
   Monomer B GRAC Shift        0.113162
   Delta HF                        True
   JK Algorithm                      DF

   Required computations:
     HF  (Dimer)
     HF  (Monomer A)
     HF  (Monomer B)
     DFT (Monomer A)
     DFT (Monomer B)

   => Libint2 <=

    Primary   basis highest AM E, G, H:  6, 6, 3
    Auxiliary basis highest AM E, G, H:  7, 7, 4
    Onebody   basis highest AM E, G, H:  -, -, -
    Solid Harmonics ordering:            Gaussian

*** tstart() called on cmpsrv002
*** at Thu Sep 19 14:16:08 2024

   => Loading Basis Set <=

    Name: THIS_BASIS
    Role: ORBITAL
    Keyword: BASIS
    atoms 1, 4-6 entry H          line    15 file /home/vance/anaconda3/envs/p4env/share/psi4/basis/def2-qzvp.gbs 
    atoms 2      entry BR         line  2253 file /home/vance/anaconda3/envs/p4env/share/psi4/basis/def2-qzvp.gbs 
    atoms 3      entry N          line   242 file /home/vance/anaconda3/envs/p4env/share/psi4/basis/def2-qzvp.gbs 


         ---------------------------------------------------------
                         SAPT(DFT): delta HF Dimer                 
         ---------------------------------------------------------
                                   SCF
               by Justin Turney, Rob Parrish, Andy Simmonett
                          and Daniel G. A. Smith
                              RHF Reference
                        4 Threads,   7629 MiB Core
         ---------------------------------------------------------

  ==> Geometry <==

    Molecular point group: c1
    Full point group: Cs

    Geometry (in Angstrom), charge = 0, multiplicity = 1:

       Center              X                  Y                   Z               Mass       
    ------------   -----------------  -----------------  -----------------  -----------------
         H            0.000022767418    -0.961388358650     0.000000000000     1.007825032230
         BR          -0.000007232582     0.552831641350     0.000000000000    78.918337600000
         N            0.000032767418    -2.442888358650     0.000000000000    14.003074004430
         H           -0.474347232582    -2.795358358650     0.821650000000     1.007825032230
         H           -0.474347232582    -2.795358358650    -0.821650000000     1.007825032230
         H            0.948782767418    -2.795358358650     0.000000000000     1.007825032230

  Running in c1 symmetry.

  Rotational constants: A =      6.19413  B =      0.12618  C =      0.12618 [cm^-1]
  Rotational constants: A = 185695.44926  B =   3782.68572  C =   3782.68521 [MHz]
  Nuclear repulsion =   86.690826008685008

  Charge       = 0
  Multiplicity = 1
  Electrons    = 46
  Nalpha       = 23
  Nbeta        = 23

  ==> Algorithm <==

  SCF Algorithm Type is DF.
  DIIS enabled.
  MOM disabled.
  Fractional occupation disabled.
  Guess Type is SAD.
  Energy threshold   = 1.00e-08
  Density threshold  = 1.00e-08
  Integral threshold = 1.00e-12

  ==> Primary Basis <==

  Basis Set: THIS_BASIS
    Blend: DEF2-QZVP
    Number of shells: 82
    Number of basis functions: 252
    Number of Cartesian functions: 303
    Spherical Harmonics?: true
    Max angular momentum: 4

   => Loading Basis Set <=

    Name: (THIS_BASIS AUX)
    Role: JKFIT
    Keyword: DF_BASIS_SCF
    atoms 1, 4-6 entry H          line    18 file /home/vance/anaconda3/envs/p4env/share/psi4/basis/def2-universal-jkfit.gbs 
    atoms 2      entry BR         line  3124 file /home/vance/anaconda3/envs/p4env/share/psi4/basis/def2-universal-jkfit.gbs 
    atoms 3      entry N          line   258 file /home/vance/anaconda3/envs/p4env/share/psi4/basis/def2-universal-jkfit.gbs 

  ==> Integral Setup <==

  ==> DiskDFJK: Density-Fitted J/K Matrices <==

    J tasked:                  Yes
    K tasked:                  Yes
    wK tasked:                  No
    OpenMP threads:              4
    Integrals threads:           4
    Memory [MiB]:             5722
    Algorithm:                Core
    Integral Cache:           SAVE
    Schwarz Cutoff:          1E-12
    Fitting Condition:       1E-10

   => Auxiliary Basis Set <=

  Basis Set: (THIS_BASIS AUX)
    Blend: DEF2-UNIVERSAL-JKFIT
    Number of shells: 109
    Number of basis functions: 415
    Number of Cartesian functions: 544
    Spherical Harmonics?: true
    Max angular momentum: 5

  Minimum eigenvalue in the overlap matrix is 1.0324733073E-04.
  Reciprocal condition number of the overlap matrix is 1.1908423008E-05.
    Using symmetric orthogonalization.

  ==> Pre-Iterations <==

  SCF Guess: Superposition of Atomic Densities via on-the-fly atomic UHF (no occupation information).

   -------------------------
    Irrep   Nso     Nmo    
   -------------------------
     A        252     252 
   -------------------------
    Total     252     252
   -------------------------

  ==> Iterations <==

                           Total Energy        Delta E     RMS |[F,P]|

   @DF-RHF iter SAD: -2627.03287821362983   -2.62703e+03   0.00000e+00 
   @DF-RHF iter   1: -2628.90528592475630   -1.87241e+00   7.05382e-03 ADIIS/DIIS
   @DF-RHF iter   2: -2629.15203165869207   -2.46746e-01   4.66790e-03 ADIIS/DIIS
   @DF-RHF iter   3: -2629.27528859103813   -1.23257e-01   1.67352e-04 ADIIS/DIIS
   @DF-RHF iter   4: -2629.27622924027582   -9.40649e-04   5.48868e-05 DIIS
   @DF-RHF iter   5: -2629.27636442471794   -1.35184e-04   1.81702e-05 DIIS
   @DF-RHF iter   6: -2629.27638112207160   -1.66974e-05   5.84309e-06 DIIS
   @DF-RHF iter   7: -2629.27638293660857   -1.81454e-06   1.15355e-06 DIIS
   @DF-RHF iter   8: -2629.27638306776953   -1.31161e-07   4.15171e-07 DIIS
   @DF-RHF iter   9: -2629.27638308109408   -1.33246e-08   7.87642e-08 DIIS
   @DF-RHF iter  10: -2629.27638308163978   -5.45697e-10   1.22105e-08 DIIS
   @DF-RHF iter  11: -2629.27638308165979   -2.00089e-11   2.68562e-09 DIIS
  Energy and wave function converged.


  ==> Post-Iterations <==

    Orbital Energies [Eh]
    ---------------------

    Doubly Occupied:                                                      

       1A   -489.961693     2A    -65.102677     3A    -58.457632  
       4A    -58.457105     5A    -58.457105     6A    -15.610111  
       7A     -9.775696     8A     -7.385368     9A     -7.382107  
      10A     -7.382107    11A     -3.127972    12A     -3.125924  
      13A     -3.125924    14A     -3.122011    15A     -3.122011  
      16A     -1.219114    17A     -0.963125    18A     -0.702351  
      19A     -0.702348    20A     -0.616045    21A     -0.408792  
      22A     -0.375398    23A     -0.375398  

    Virtual:                                                              

      24A      0.076949    25A      0.131725    26A      0.131726  
      27A      0.191046    28A      0.228621    29A      0.261299  
      30A      0.261299    31A      0.318004    32A      0.318004  
      33A      0.332185    34A      0.376078    35A      0.440327  
      36A      0.440329    37A      0.460727    38A      0.471722  
      39A      0.471724    40A      0.524600    41A      0.524600  
      42A      0.592192    43A      0.592193    44A      0.597429  
      45A      0.698528    46A      0.821442    47A      0.821443  
      48A      0.822089    49A      0.822465    50A      0.897908  
      51A      0.897910    52A      0.919970    53A      1.013046  
      54A      1.013048    55A      1.058511    56A      1.074881  
      57A      1.074881    58A      1.155547    59A      1.247228  
      60A      1.249995    61A      1.249996    62A      1.259912  
      63A      1.266349    64A      1.266350    65A      1.286962  
      66A      1.315494    67A      1.315495    68A      1.341029  
      69A      1.373872    70A      1.373875    71A      1.417579  
      72A      1.539417    73A      1.627853    74A      1.627855  
      75A      1.731126    76A      1.756194    77A      1.756194  
      78A      1.825355    79A      1.825355    80A      1.835821  
      81A      1.906687    82A      1.906690    83A      2.179630  
      84A      2.179631    85A      2.183161    86A      2.278453  
      87A      2.278455    88A      2.288601    89A      2.335766  
      90A      2.428952    91A      2.443131    92A      2.443131  
      93A      2.520634    94A      2.520641    95A      2.538990  
      96A      2.538993    97A      2.615200    98A      2.627095  
      99A      2.627096   100A      2.689669   101A      2.689672  
     102A      2.709109   103A      2.843116   104A      2.855373  
     105A      2.855374   106A      2.887947   107A      3.025833  
     108A      3.025836   109A      3.052106   110A      3.052941  
     111A      3.066302   112A      3.066302   113A      3.089444  
     114A      3.089445   115A      3.104290   116A      3.123248  
     117A      3.123433   118A      3.136590   119A      3.136590  
     120A      3.151972   121A      3.164996   122A      3.164997  
     123A      3.178381   124A      3.310153   125A      3.405672  
     126A      3.405672   127A      3.501031   128A      3.501036  
     129A      3.513779   130A      3.680238   131A      3.680238  
     132A      3.683059   133A      3.912439   134A      3.912445  
     135A      3.915160   136A      4.038726   137A      4.106328  
     138A      4.164964   139A      4.164964   140A      4.323285  
     141A      4.323296   142A      4.377850   143A      4.471697  
     144A      4.471698   145A      4.576722   146A      4.600837  
     147A      4.600849   148A      4.839562   149A      5.420881  
     150A      5.420890   151A      5.472676   152A      5.511174  
     153A      5.511174   154A      5.671072   155A      5.671074  
     156A      5.895270   157A      6.089728   158A      6.101905  
     159A      6.133773   160A      6.133776   161A      6.220100  
     162A      6.220104   163A      6.265766   164A      6.328988  
     165A      6.328995   166A      6.489267   167A      6.489285  
     168A      6.539228   169A      6.726005   170A      6.865652  
     171A      6.964083   172A      6.964085   173A      7.026927  
     174A      7.026931   175A      7.215484   176A      7.243105  
     177A      7.374581   178A      7.374598   179A      7.516192  
     180A      7.555524   181A      7.555525   182A      7.617248  
     183A      7.617254   184A      7.638157   185A      7.638160  
     186A      7.675109   187A      7.901409   188A      7.963205  
     189A      7.963207   190A      8.017882   191A      8.077498  
     192A      8.077503   193A      8.233686   194A      8.253744  
     195A      8.253744   196A      8.317994   197A      8.317999  
     198A      8.334760   199A      8.459420   200A      8.468593  
     201A      8.468594   202A      8.511215   203A      8.602893  
     204A      8.619127   205A      8.619136   206A      8.636734  
     207A      8.772213   208A      8.839255   209A      8.839260  
     210A      8.959867   211A      8.959885   212A      9.015016  
     213A      9.102618   214A      9.124698   215A      9.124704  
     216A      9.256100   217A      9.256104   218A      9.420392  
     219A      9.571517   220A      9.571523   221A      9.998626  
     222A     10.053265   223A     10.053282   224A     10.115893  
     225A     10.115895   226A     10.142766   227A     10.242265  
     228A     10.489025   229A     10.489026   230A     10.632311  
     231A     11.424690   232A     11.589289   233A     11.666396  
     234A     11.666412   235A     12.078157   236A     12.086709  
     237A     12.086719   238A     12.286050   239A     12.286098  
     240A     12.408189   241A     14.507018   242A     14.507019  
     243A     14.830813   244A     14.830822   245A     14.967155  
     246A     15.729185   247A     30.377216   248A     39.486978  
     249A     96.877050   250A    200.640549   251A    325.392842  
     252A   1828.446783  

    Final Occupation by Irrep:
              A 
    DOCC [    23 ]
    NA   [    23 ]
    NB   [    23 ]

  @DF-RHF Final Energy: -2629.27638308165979

   => Energetics <=

    Nuclear Repulsion Energy =             86.6908260086850078
    One-Electron Energy =               -3834.0183850129997154
    Two-Electron Energy =                1118.0511759226551476
    Total Energy =                      -2629.2763830816597874

Computation Completed


Properties will be evaluated at   0.000000,   0.000000,   0.000000 [a0]

Properties computed using the SCF density matrix


 Multipole Moments:

 ------------------------------------------------------------------------------------
     Multipole            Electronic (a.u.)      Nuclear  (a.u.)        Total (a.u.)
 ------------------------------------------------------------------------------------

 L = 1.  Multiply by 2.5417464519 to convert [e a0] to [Debye]
 Dipole X            :         -0.0001410            0.0001650            0.0000240
 Dipole Y            :         11.0996343          -13.4143617           -2.3147274
 Dipole Z            :          0.0000000            0.0000000            0.0000000
 Magnitude           :                                                    2.3147274

 ------------------------------------------------------------------------------------

*** tstop() called on cmpsrv002 at Thu Sep 19 14:19:31 2024
Module time:
	user time   =      13.96 seconds =       0.23 minutes
	system time =       2.11 seconds =       0.04 minutes
	total time  =        203 seconds =       3.38 minutes
Total time:
	user time   =      13.97 seconds =       0.23 minutes
	system time =       2.11 seconds =       0.04 minutes
	total time  =        203 seconds =       3.38 minutes
   => Libint2 <=

    Primary   basis highest AM E, G, H:  6, 6, 3
    Auxiliary basis highest AM E, G, H:  7, 7, 4
    Onebody   basis highest AM E, G, H:  -, -, -
    Solid Harmonics ordering:            Gaussian

*** tstart() called on cmpsrv002
*** at Thu Sep 19 14:19:31 2024

   => Loading Basis Set <=

    Name: THIS_BASIS
    Role: ORBITAL
    Keyword: BASIS
    atoms 1, 4-6 entry H          line    15 file /home/vance/anaconda3/envs/p4env/share/psi4/basis/def2-qzvp.gbs 
    atoms 2      entry BR         line  2253 file /home/vance/anaconda3/envs/p4env/share/psi4/basis/def2-qzvp.gbs 
    atoms 3      entry N          line   242 file /home/vance/anaconda3/envs/p4env/share/psi4/basis/def2-qzvp.gbs 


         ---------------------------------------------------------
                       SAPT(DFT): delta HF Monomer A               
         ---------------------------------------------------------
                                   SCF
               by Justin Turney, Rob Parrish, Andy Simmonett
                          and Daniel G. A. Smith
                              RHF Reference
                        4 Threads,   7629 MiB Core
         ---------------------------------------------------------

  ==> Geometry <==

    Molecular point group: c1
    Full point group: Cs

    Geometry (in Angstrom), charge = 0, multiplicity = 1:

       Center              X                  Y                   Z               Mass       
    ------------   -----------------  -----------------  -----------------  -----------------
         H            0.000022767418    -0.961388358650     0.000000000000     1.007825032230
         BR          -0.000007232582     0.552831641350     0.000000000000    78.918337600000
      Gh(N)           0.000032767418    -2.442888358650     0.000000000000    14.003074004430
      Gh(H)          -0.474347232582    -2.795358358650     0.821650000000     1.007825032230
      Gh(H)          -0.474347232582    -2.795358358650    -0.821650000000     1.007825032230
      Gh(H)           0.948782767418    -2.795358358650     0.000000000000     1.007825032230

  Running in c1 symmetry.

  Rotational constants: A =      6.19413  B =      0.12618  C =      0.12618 [cm^-1]
  Rotational constants: A = 185695.44926  B =   3782.68572  C =   3782.68521 [MHz]
  Nuclear repulsion =   12.231513498576831

  Charge       = 0
  Multiplicity = 1
  Electrons    = 36
  Nalpha       = 18
  Nbeta        = 18

  ==> Algorithm <==

  SCF Algorithm Type is DF.
  DIIS enabled.
  MOM disabled.
  Fractional occupation disabled.
  Guess Type is SAD.
  Energy threshold   = 1.00e-08
  Density threshold  = 1.00e-08
  Integral threshold = 1.00e-12

  ==> Primary Basis <==

  Basis Set: THIS_BASIS
    Blend: DEF2-QZVP
    Number of shells: 82
    Number of basis functions: 252
    Number of Cartesian functions: 303
    Spherical Harmonics?: true
    Max angular momentum: 4

   => Loading Basis Set <=

    Name: (THIS_BASIS AUX)
    Role: JKFIT
    Keyword: DF_BASIS_SCF
    atoms 1, 4-6 entry H          line    18 file /home/vance/anaconda3/envs/p4env/share/psi4/basis/def2-universal-jkfit.gbs 
    atoms 2      entry BR         line  3124 file /home/vance/anaconda3/envs/p4env/share/psi4/basis/def2-universal-jkfit.gbs 
    atoms 3      entry N          line   258 file /home/vance/anaconda3/envs/p4env/share/psi4/basis/def2-universal-jkfit.gbs 

  ==> Integral Setup <==

  ==> DiskDFJK: Density-Fitted J/K Matrices <==

    J tasked:                  Yes
    K tasked:                  Yes
    wK tasked:                  No
    OpenMP threads:              4
    Integrals threads:           4
    Memory [MiB]:             5722
    Algorithm:                Core
    Integral Cache:           SAVE
    Schwarz Cutoff:          1E-12
    Fitting Condition:       1E-10

   => Auxiliary Basis Set <=

  Basis Set: (THIS_BASIS AUX)
    Blend: DEF2-UNIVERSAL-JKFIT
    Number of shells: 109
    Number of basis functions: 415
    Number of Cartesian functions: 544
    Spherical Harmonics?: true
    Max angular momentum: 5

  Minimum eigenvalue in the overlap matrix is 1.0324733073E-04.
  Reciprocal condition number of the overlap matrix is 1.1908423008E-05.
    Using symmetric orthogonalization.

  ==> Pre-Iterations <==

  SCF Guess: Superposition of Atomic Densities via on-the-fly atomic UHF (no occupation information).

   -------------------------
    Irrep   Nso     Nmo    
   -------------------------
     A        252     252 
   -------------------------
    Total     252     252
   -------------------------

  ==> Iterations <==

                           Total Energy        Delta E     RMS |[F,P]|

   @DF-RHF iter SAD: -2571.10345669121944   -2.57110e+03   0.00000e+00 
   @DF-RHF iter   1: -2572.74129341084063   -1.63784e+00   6.82761e-03 ADIIS/DIIS
   @DF-RHF iter   2: -2572.93137310277552   -1.90080e-01   4.54878e-03 ADIIS/DIIS
   @DF-RHF iter   3: -2573.04565984903547   -1.14287e-01   1.02090e-04 ADIIS/DIIS
   @DF-RHF iter   4: -2573.04615946955437   -4.99621e-04   3.62849e-05 DIIS
   @DF-RHF iter   5: -2573.04624214711657   -8.26776e-05   1.04553e-05 DIIS
   @DF-RHF iter   6: -2573.04625228461055   -1.01375e-05   2.14938e-06 DIIS
   @DF-RHF iter   7: -2573.04625259177465   -3.07164e-07   4.06004e-07 DIIS
   @DF-RHF iter   8: -2573.04625260209832   -1.03237e-08   5.70643e-08 DIIS
   @DF-RHF iter   9: -2573.04625260238981   -2.91493e-10   7.71242e-09 DIIS
  Energy and wave function converged.


  ==> Post-Iterations <==

    Orbital Energies [Eh]
    ---------------------

    Doubly Occupied:                                                      

       1A   -490.040297     2A    -65.179832     3A    -58.535410  
       4A    -58.533954     5A    -58.533954     6A     -9.851734  
       7A     -7.463158     8A     -7.456594     9A     -7.456594  
      10A     -3.207076    11A     -3.203332    12A     -3.203332  
      13A     -3.194732    14A     -3.194732    15A     -1.020414  
      16A     -0.564634    17A     -0.433497    18A     -0.433497  

    Virtual:                                                              

      19A      0.054082    20A      0.126709    21A      0.136766  
      22A      0.136766    23A      0.206169    24A      0.251182  
      25A      0.278508    26A      0.278508    27A      0.294502  
      28A      0.294502    29A      0.324769    30A      0.423882  
      31A      0.459024    32A      0.459025    33A      0.478406  
      34A      0.478406    35A      0.532458    36A      0.532459  
      37A      0.553835    38A      0.666029    39A      0.666030  
      40A      0.687093    41A      0.774936    42A      0.868972  
      43A      0.868973    44A      0.869056    45A      0.938882  
      46A      0.954875    47A      0.954877    48A      0.959317  
      49A      1.047693    50A      1.073703    51A      1.073704  
      52A      1.160276    53A      1.160278    54A      1.198939  
      55A      1.211297    56A      1.214191    57A      1.214192  
      58A      1.218594    59A      1.259830    60A      1.259830  
      61A      1.345437    62A      1.345437    63A      1.357606  
      64A      1.424399    65A      1.431172    66A      1.431173  
      67A      1.449126    68A      1.662877    69A      1.662878  
      70A      1.665539    71A      1.700346    72A      1.700346  
      73A      1.742121    74A      1.826962    75A      1.826962  
      76A      2.004908    77A      2.139624    78A      2.139626  
      79A      2.215728    80A      2.281050    81A      2.281052  
      82A      2.371252    83A      2.371253    84A      2.409439  
      85A      2.462571    86A      2.532131    87A      2.532131  
      88A      2.602596    89A      2.602598    90A      2.672746  
      91A      2.672748    92A      2.674953    93A      2.679884  
      94A      2.735275    95A      2.787608    96A      2.787611  
      97A      2.864649    98A      2.864650    99A      2.927588  
     100A      2.942344   101A      2.942348   102A      2.985974  
     103A      2.985974   104A      2.991488   105A      2.991984  
     106A      3.010758   107A      3.010758   108A      3.025998  
     109A      3.064184   110A      3.065438   111A      3.073701  
     112A      3.073703   113A      3.183731   114A      3.249717  
     115A      3.249721   116A      3.288964   117A      3.345449  
     118A      3.345452   119A      3.418819   120A      3.425434  
     121A      3.491923   122A      3.491926   123A      3.566128  
     124A      3.630050   125A      3.630053   126A      3.771983  
     127A      3.771988   128A      3.795978   129A      3.927313  
     130A      3.927320   131A      4.012422   132A      4.175175  
     133A      4.242790   134A      4.242791   135A      4.360270  
     136A      4.391643   137A      4.478797   138A      4.478799  
     139A      4.537931   140A      4.537938   141A      4.598269  
     142A      4.936719   143A      5.053164   144A      5.053164  
     145A      5.444854   146A      5.444854   147A      5.451288  
     148A      5.633429   149A      5.633430   150A      5.991094  
     151A      5.991112   152A      5.999318   153A      6.066741  
     154A      6.080427   155A      6.326755   156A      6.326761  
     157A      6.477593   158A      6.477597   159A      6.546686  
     160A      6.629110   161A      6.629120   162A      6.758489  
     163A      6.758502   164A      6.832048   165A      7.195733  
     166A      7.195733   167A      7.238053   168A      7.238055  
     169A      7.309040   170A      7.390529   171A      7.548752  
     172A      7.647396   173A      7.667162   174A      7.667168  
     175A      7.865719   176A      7.865723   177A      7.952128  
     178A      8.018291   179A      8.086119   180A      8.086125  
     181A      8.132824   182A      8.256735   183A      8.256740  
     184A      8.382566   185A      8.382571   186A      8.411060  
     187A      8.569181   188A      8.610419   189A      8.610427  
     190A      8.657131   191A      8.657132   192A      8.784549  
     193A      8.784811   194A      8.795104   195A      8.795105  
     196A      8.930740   197A      8.930744   198A      8.980748  
     199A      9.051919   200A      9.051924   201A      9.107950  
     202A      9.148422   203A      9.319416   204A      9.347503  
     205A      9.347510   206A      9.483526   207A      9.483529  
     208A      9.483989   209A      9.505275   210A      9.835177  
     211A      9.838695   212A      9.838697   213A      9.989493  
     214A     10.108980   215A     10.108992   216A     10.236734  
     217A     10.399292   218A     10.399302   219A     10.851577  
     220A     10.851598   221A     11.054910   222A     11.054929  
     223A     11.102945   224A     11.184311   225A     11.846414  
     226A     11.846428   227A     12.136121   228A     12.346586  
     229A     12.346635   230A     12.842765   231A     13.674056  
     232A     13.873785   233A     13.873807   234A     14.186984  
     235A     14.288892   236A     14.288915   237A     14.438443  
     238A     14.438444   239A     14.585647   240A     14.585675  
     241A     14.655636   242A     14.908605   243A     16.157185  
     244A     18.275402   245A     18.275423   246A     25.608076  
     247A     30.305391   248A     70.382962   249A     96.801166  
     250A    318.803614   251A    325.317365   252A   1828.368431  

    Final Occupation by Irrep:
              A 
    DOCC [    18 ]
    NA   [    18 ]
    NB   [    18 ]

  @DF-RHF Final Energy: -2573.04625260238981

   => Energetics <=

    Nuclear Repulsion Energy =             12.2315134985768310
    One-Electron Energy =               -3607.5419932610202522
    Two-Electron Energy =                1022.2642271600534514
    Total Energy =                      -2573.0462526023898135

Computation Completed


Properties will be evaluated at   0.000000,   0.000000,   0.000000 [a0]

Properties computed using the SCF density matrix


 Multipole Moments:

 ------------------------------------------------------------------------------------
     Multipole            Electronic (a.u.)      Nuclear  (a.u.)        Total (a.u.)
 ------------------------------------------------------------------------------------

 L = 1.  Multiply by 2.5417464519 to convert [e a0] to [Debye]
 Dipole X            :          0.0004434           -0.0004353            0.0000081
 Dipole Y            :        -35.1526229           34.7477531           -0.4048697
 Dipole Z            :         -0.0000000            0.0000000           -0.0000000
 Magnitude           :                                                    0.4048697

 ------------------------------------------------------------------------------------

*** tstop() called on cmpsrv002 at Thu Sep 19 14:21:28 2024
Module time:
	user time   =      12.37 seconds =       0.21 minutes
	system time =       1.03 seconds =       0.02 minutes
	total time  =        118 seconds =       1.97 minutes
Total time:
	user time   =      26.16 seconds =       0.44 minutes
	system time =       2.67 seconds =       0.04 minutes
	total time  =        325 seconds =       5.42 minutes
   => Libint2 <=

    Primary   basis highest AM E, G, H:  6, 6, 3
    Auxiliary basis highest AM E, G, H:  7, 7, 4
    Onebody   basis highest AM E, G, H:  -, -, -
    Solid Harmonics ordering:            Gaussian

*** tstart() called on cmpsrv002
*** at Thu Sep 19 14:21:28 2024

   => Loading Basis Set <=

    Name: THIS_BASIS
    Role: ORBITAL
    Keyword: BASIS
    atoms 1, 4-6 entry H          line    15 file /home/vance/anaconda3/envs/p4env/share/psi4/basis/def2-qzvp.gbs 
    atoms 2      entry BR         line  2253 file /home/vance/anaconda3/envs/p4env/share/psi4/basis/def2-qzvp.gbs 
    atoms 3      entry N          line   242 file /home/vance/anaconda3/envs/p4env/share/psi4/basis/def2-qzvp.gbs 


         ---------------------------------------------------------
                       SAPT(DFT): delta HF Monomer B               
         ---------------------------------------------------------
                                   SCF
               by Justin Turney, Rob Parrish, Andy Simmonett
                          and Daniel G. A. Smith
                              RHF Reference
                        4 Threads,   7629 MiB Core
         ---------------------------------------------------------

  ==> Geometry <==

    Molecular point group: c1
    Full point group: Cs

    Geometry (in Angstrom), charge = 0, multiplicity = 1:

       Center              X                  Y                   Z               Mass       
    ------------   -----------------  -----------------  -----------------  -----------------
      Gh(H)           0.000022767418    -0.961388358650     0.000000000000     1.007825032230
      Gh(BR)         -0.000007232582     0.552831641350     0.000000000000    78.918337600000
         N            0.000032767418    -2.442888358650     0.000000000000    14.003074004430
         H           -0.474347232582    -2.795358358650     0.821650000000     1.007825032230
         H           -0.474347232582    -2.795358358650    -0.821650000000     1.007825032230
         H            0.948782767418    -2.795358358650     0.000000000000     1.007825032230

  Running in c1 symmetry.

  Rotational constants: A =      6.19413  B =      0.12618  C =      0.12618 [cm^-1]
  Rotational constants: A = 185695.44926  B =   3782.68572  C =   3782.68521 [MHz]
  Nuclear repulsion =   11.945783476959880

  Charge       = 0
  Multiplicity = 1
  Electrons    = 10
  Nalpha       = 5
  Nbeta        = 5

  ==> Algorithm <==

  SCF Algorithm Type is DF.
  DIIS enabled.
  MOM disabled.
  Fractional occupation disabled.
  Guess Type is SAD.
  Energy threshold   = 1.00e-08
  Density threshold  = 1.00e-08
  Integral threshold = 1.00e-12

  ==> Primary Basis <==

  Basis Set: THIS_BASIS
    Blend: DEF2-QZVP
    Number of shells: 82
    Number of basis functions: 252
    Number of Cartesian functions: 303
    Spherical Harmonics?: true
    Max angular momentum: 4

   => Loading Basis Set <=

    Name: (THIS_BASIS AUX)
    Role: JKFIT
    Keyword: DF_BASIS_SCF
    atoms 1, 4-6 entry H          line    18 file /home/vance/anaconda3/envs/p4env/share/psi4/basis/def2-universal-jkfit.gbs 
    atoms 2      entry BR         line  3124 file /home/vance/anaconda3/envs/p4env/share/psi4/basis/def2-universal-jkfit.gbs 
    atoms 3      entry N          line   258 file /home/vance/anaconda3/envs/p4env/share/psi4/basis/def2-universal-jkfit.gbs 

  ==> Integral Setup <==

  ==> DiskDFJK: Density-Fitted J/K Matrices <==

    J tasked:                  Yes
    K tasked:                  Yes
    wK tasked:                  No
    OpenMP threads:              4
    Integrals threads:           4
    Memory [MiB]:             5722
    Algorithm:                Core
    Integral Cache:           SAVE
    Schwarz Cutoff:          1E-12
    Fitting Condition:       1E-10

   => Auxiliary Basis Set <=

  Basis Set: (THIS_BASIS AUX)
    Blend: DEF2-UNIVERSAL-JKFIT
    Number of shells: 109
    Number of basis functions: 415
    Number of Cartesian functions: 544
    Spherical Harmonics?: true
    Max angular momentum: 5

  Minimum eigenvalue in the overlap matrix is 1.0324733073E-04.
  Reciprocal condition number of the overlap matrix is 1.1908423008E-05.
    Using symmetric orthogonalization.

  ==> Pre-Iterations <==

  SCF Guess: Superposition of Atomic Densities via on-the-fly atomic UHF (no occupation information).

   -------------------------
    Irrep   Nso     Nmo    
   -------------------------
     A        252     252 
   -------------------------
    Total     252     252
   -------------------------

  ==> Iterations <==

                           Total Energy        Delta E     RMS |[F,P]|

   @DF-RHF iter SAD:   -55.65138465498050   -5.56514e+01   0.00000e+00 
   @DF-RHF iter   1:   -56.13002447824461   -4.78640e-01   1.82274e-03 ADIIS/DIIS
   @DF-RHF iter   2:   -56.19692271512215   -6.68982e-02   1.05168e-03 ADIIS/DIIS
   @DF-RHF iter   3:   -56.22383090675579   -2.69082e-02   9.74726e-05 DIIS
   @DF-RHF iter   4:   -56.22445900837499   -6.28102e-04   1.81079e-05 DIIS
   @DF-RHF iter   5:   -56.22447950671938   -2.04983e-05   3.37440e-06 DIIS
   @DF-RHF iter   6:   -56.22448071603974   -1.20932e-06   8.58095e-07 DIIS
   @DF-RHF iter   7:   -56.22448079867784   -8.26381e-08   1.89892e-07 DIIS
   @DF-RHF iter   8:   -56.22448080300499   -4.32716e-09   3.00810e-08 DIIS
   @DF-RHF iter   9:   -56.22448080311282   -1.07825e-10   8.38530e-09 DIIS
  Energy and wave function converged.


  ==> Post-Iterations <==

    Orbital Energies [Eh]
    ---------------------

    Doubly Occupied:                                                      

       1A    -15.538508     2A     -1.138718     3A     -0.631275  
       4A     -0.631273     5A     -0.424054  

    Virtual:                                                              

       6A      0.100188     7A      0.120900     8A      0.154830  
       9A      0.154830    10A      0.200507    11A      0.200507  
      12A      0.239115    13A      0.320968    14A      0.323585  
      15A      0.323586    16A      0.385723    17A      0.505521  
      18A      0.521206    19A      0.521208    20A      0.539854  
      21A      0.539855    22A      0.585797    23A      0.683179  
      24A      0.683179    25A      0.688081    26A      0.743944  
      27A      0.743944    28A      0.783405    29A      0.783407  
      30A      0.816077    31A      0.867201    32A      0.868174  
      33A      0.896818    34A      0.896819    35A      0.960439  
      36A      1.006004    37A      1.006005    38A      1.065326  
      39A      1.074235    40A      1.074238    41A      1.188305  
      42A      1.188305    43A      1.295367    44A      1.310807  
      45A      1.350402    46A      1.350402    47A      1.405619  
      48A      1.452139    49A      1.453589    50A      1.461350  
      51A      1.461351    52A      1.482085    53A      1.482090  
      54A      1.500583    55A      1.634346    56A      1.801125  
      57A      1.801126    58A      1.890201    59A      1.890201  
      60A      1.896176    61A      1.945182    62A      1.994868  
      63A      1.994872    64A      2.219874    65A      2.289744  
      66A      2.289747    67A      2.342576    68A      2.389231  
      69A      2.389232    70A      2.395557    71A      2.442693  
      72A      2.442694    73A      2.464166    74A      2.474887  
      75A      2.474887    76A      2.533893    77A      2.533893  
      78A      2.608642    79A      2.608648    80A      2.674613  
      81A      2.674614    82A      2.681426    83A      2.712119  
      84A      2.832426    85A      2.832431    86A      2.842317  
      87A      2.912569    88A      2.912570    89A      2.960455  
      90A      3.094099    91A      3.094100    92A      3.123246  
      93A      3.191415    94A      3.191416    95A      3.218517  
      96A      3.218523    97A      3.232005    98A      3.275508  
      99A      3.383428   100A      3.430358   101A      3.430361  
     102A      3.563981   103A      3.590950   104A      3.591676  
     105A      3.593279   106A      3.593279   107A      3.795243  
     108A      3.849700   109A      3.849702   110A      3.932857  
     111A      3.932860   112A      3.994477   113A      3.994479  
     114A      4.096558   115A      4.183928   116A      4.382761  
     117A      4.408516   118A      4.408527   119A      4.514482  
     120A      4.515009   121A      4.516828   122A      4.516830  
     123A      4.530622   124A      4.530623   125A      4.585457  
     126A      4.609350   127A      4.609351   128A      4.691072  
     129A      4.691081   130A      4.699120   131A      4.761214  
     132A      4.931199   133A      4.931202   134A      5.392577  
     135A      5.507533   136A      5.507541   137A      5.522346  
     138A      5.855818   139A      6.210356   140A      6.210356  
     141A      6.282162   142A      6.282167   143A      6.325354  
     144A      6.393856   145A      6.402841   146A      6.404126  
     147A      6.404135   148A      6.503448   149A      6.679897  
     150A      6.679907   151A      6.790377   152A      6.932915  
     153A      6.932915   154A      6.967018   155A      7.003064  
     156A      7.003069   157A      7.128706   158A      7.128716  
     159A      7.271159   160A      7.280603   161A      7.348294  
     162A      7.348306   163A      7.470428   164A      7.470443  
     165A      7.630354   166A      7.630362   167A      7.667677  
     168A      7.694259   169A      7.697262   170A      7.697266  
     171A      7.905106   172A      7.921680   173A      7.921685  
     174A      8.099140   175A      8.107705   176A      8.107712  
     177A      8.204826   178A      8.204830   179A      8.300304  
     180A      8.407539   181A      8.443248   182A      8.443249  
     183A      8.502046   184A      8.526722   185A      8.607499  
     186A      8.607511   187A      8.671913   188A      8.719350  
     189A      8.840215   190A      8.840221   191A      8.939523  
     192A      8.939525   193A      8.992413   194A      9.018561  
     195A      9.018569   196A      9.145870   197A      9.152114  
     198A      9.152120   199A      9.373729   200A      9.373734  
     201A      9.657832   202A      9.701630   203A      9.701638  
     204A      9.794094   205A      9.794099   206A     10.067663  
     207A     10.155833   208A     10.155849   209A     10.255405  
     210A     10.255411   211A     10.260795   212A     10.315382  
     213A     10.565876   214A     10.565877   215A     10.587420  
     216A     10.939669   217A     10.989747   218A     10.989747  
     219A     11.560452   220A     11.650700   221A     11.737114  
     222A     11.737130   223A     12.048543   224A     12.154233  
     225A     12.157422   226A     12.157432   227A     12.361248  
     228A     12.361296   229A     12.475625   230A     13.063962  
     231A     14.899405   232A     14.899413   233A     15.805739  
     234A     28.721517   235A     28.721517   236A     29.028687  
     237A     29.347733   238A     35.272145   239A     35.272145  
     240A     35.476884   241A     35.476885   242A     36.240063  
     243A     39.562786   244A     64.673133   245A    141.592542  
     246A    165.033717   247A    165.033717   248A    165.488750  
     249A    200.712083   250A    325.234917   251A    874.511497  
     252A   3948.690215  

    Final Occupation by Irrep:
              A 
    DOCC [     5 ]
    NA   [     5 ]
    NB   [     5 ]

  @DF-RHF Final Energy:   -56.22448080311282

   => Energetics <=

    Nuclear Repulsion Energy =             11.9457834769598801
    One-Electron Energy =                 -99.6128711656635062
    Two-Electron Energy =                  31.4426068855908127
    Total Energy =                        -56.2244808031128187

Computation Completed


Properties will be evaluated at   0.000000,   0.000000,   0.000000 [a0]

Properties computed using the SCF density matrix


 Multipole Moments:

 ------------------------------------------------------------------------------------
     Multipole            Electronic (a.u.)      Nuclear  (a.u.)        Total (a.u.)
 ------------------------------------------------------------------------------------

 L = 1.  Multiply by 2.5417464519 to convert [e a0] to [Debye]
 Dipole X            :         -0.0006022            0.0006003           -0.0000019
 Dipole Y            :         47.5569332          -48.1621148           -0.6051817
 Dipole Z            :          0.0000000            0.0000000            0.0000000
 Magnitude           :                                                    0.6051817

 ------------------------------------------------------------------------------------

*** tstop() called on cmpsrv002 at Thu Sep 19 14:23:56 2024
Module time:
	user time   =      11.91 seconds =       0.20 minutes
	system time =       0.96 seconds =       0.02 minutes
	total time  =        148 seconds =       2.47 minutes
Total time:
	user time   =      38.08 seconds =       0.63 minutes
	system time =       3.63 seconds =       0.06 minutes
	total time  =        473 seconds =       7.88 minutes

         ---------------------------------------------------------
                        SAPT(DFT): delta HF Segment                

                   by Daniel G. A. Smith and Rob Parrish           
         ---------------------------------------------------------


  ==> Preparing SAPT Data Cache <== 

  ==> DiskDFJK: Density-Fitted J/K Matrices <==

    J tasked:                  Yes
    K tasked:                  Yes
    wK tasked:                  No
    OpenMP threads:              4
    Integrals threads:           4
    Memory [MiB]:             5722
    Algorithm:                Core
    Integral Cache:           SAVE
    Schwarz Cutoff:          1E-12
    Fitting Condition:       1E-10

   => Auxiliary Basis Set <=

  Basis Set: (THIS_BASIS AUX)
    Blend: DEF2-UNIVERSAL-JKFIT
    Number of shells: 109
    Number of basis functions: 415
    Number of Cartesian functions: 544
    Spherical Harmonics?: true
    Max angular momentum: 5


  ==> E10 Electostatics <== 

    Elst10,r                        -57.79383712 [mEh]

  ==> E10 Exchange <== 

    Exch10(S^2)                      94.12805440 [mEh]
    Exch10                          101.19777274 [mEh]

  ==> E20 Induction <== 

   => Uncoupled Induction <= 

    Ind20,u (A<-B)                  -19.57616527 [mEh]
    Ind20,u (A->B)                  -30.22084507 [mEh]
    Ind20,u                         -49.79701034 [mEh]
    Exch-Ind20,u (A<-B)              14.19411815 [mEh]
    Exch-Ind20,u (A->B)              15.03406810 [mEh]
    Exch-Ind20,u                     29.22818625 [mEh]
    Exch-Ind20,u (A<-B) (S^inf)      16.59381187 [mEh]
    Exch-Ind20,u (A->B) (S^inf)      17.84241425 [mEh]
    Exch-Ind20,u (S^inf)             34.43622612 [mEh]

   => Coupled Induction <= 

   ---------------------------------------------------
              SAPT Coupled Induction Solver           
   ---------------------------------------------------
    Maxiter             =          20
    Convergence         =   1.000E-06
   ---------------------------------------------------
     Iter       (A<-B)           (B->A)      Time [s]
   ---------------------------------------------------
    Guess    1.174733e-01     1.342237e-01          0
        1    3.635393e-02     3.873093e-02          0
        2    5.237935e-03     1.115599e-02          0
        3    1.188718e-03     3.060815e-03          0
        4    5.827562e-04     6.171855e-04          0
        5    1.924877e-04     1.040403e-04          0
        6    3.864231e-05     1.573674e-05          0
        7    4.802890e-06     1.968059e-06          1
        8    4.710078e-07*    4.981049e-07*         1
   ---------------------------------------------------

    Ind20,r (A<-B)                  -23.06511035 [mEh]
    Ind20,r (A->B)                  -37.81677482 [mEh]
    Ind20,r                         -60.88188517 [mEh]
    Exch-Ind20,r (A<-B)              17.42903462 [mEh]
    Exch-Ind20,r (A->B)              19.94853232 [mEh]
    Exch-Ind20,r                     37.37756695 [mEh]
    Exch-Ind20,r (A<-B) (S^inf)      20.45503927 [mEh]
    Exch-Ind20,r (A->B) (S^inf)      23.91177521 [mEh]
    Exch-Ind20,r (S^inf)             44.36681448 [mEh]

   Partial SAPT(HF) Results, to compute Delta HF (dHF)
  ---------------------------------------------------------------------------------------------------------
    Electrostatics                  -57.79383712 [mEh]    -36.26618032 [kcal/mol]   -151.73769844 [kJ/mol]
      Elst10,r                      -57.79383712 [mEh]    -36.26618032 [kcal/mol]   -151.73769844 [kJ/mol]

    Exchange                        101.19777274 [mEh]     63.50256112 [kcal/mol]    265.69471572 [kJ/mol]
      Exch10                        101.19777274 [mEh]     63.50256112 [kcal/mol]    265.69471572 [kJ/mol]
      Exch10(S^2)                    94.12805440 [mEh]     59.06624588 [kcal/mol]    247.13317277 [kJ/mol]

    Induction (no dHF)              -23.50431822 [mEh]    -14.74918236 [kcal/mol]    -61.71057899 [kJ/mol]
      Ind20,r                       -60.88188517 [mEh]    -38.20395973 [kcal/mol]   -159.84536749 [kJ/mol]
      Exch-Ind20,r                   37.37756695 [mEh]     23.45477737 [kcal/mol]     98.13478850 [kJ/mol]
      Induction (A<-B) (no dHF)      -5.63607573 [mEh]     -3.53669091 [kcal/mol]    -14.79751479 [kJ/mol]
      Induction (A->B) (no dHF)     -17.86824249 [mEh]    -11.21249144 [kcal/mol]    -46.91306420 [kJ/mol]

    Subtotal SAPT(HF)                19.89961740 [mEh]     12.48719844 [kcal/mol]     52.24643829 [kJ/mol]
    Total HF                         -5.64967616 [mEh]     -3.54522531 [kcal/mol]    -14.83322271 [kJ/mol]
    Delta HF                        -25.54929356 [mEh]    -16.03242376 [kcal/mol]    -67.07966100 [kJ/mol]
  ---------------------------------------------------------------------------------------------------------
   Partial SAPT(HF) Results, alternate SAPT0-like display
  ---------------------------------------------------------------------------------------------------------
    Induction                       -49.05361178 [mEh]    -30.78160612 [kcal/mol]   -128.79023999 [kJ/mol]
      Ind20,r                       -60.88188517 [mEh]    -38.20395973 [kcal/mol]   -159.84536749 [kJ/mol]
      Exch-Ind20,r                   37.37756695 [mEh]     23.45477737 [kcal/mol]     98.13478850 [kJ/mol]
      delta HF,r (2)                -25.54929356 [mEh]    -16.03242376 [kcal/mol]    -67.07966100 [kJ/mol]
      Induction (A<-B)              -11.76251394 [mEh]     -7.38108893 [kcal/mol]    -30.88247609 [kJ/mol]
      Induction (A->B)              -37.29109784 [mEh]    -23.40051718 [kcal/mol]    -97.90776389 [kJ/mol]
  ---------------------------------------------------------------------------------------------------------
   => Libint2 <=

    Primary   basis highest AM E, G, H:  6, 6, 3
    Auxiliary basis highest AM E, G, H:  7, 7, 4
    Onebody   basis highest AM E, G, H:  -, -, -
    Solid Harmonics ordering:            Gaussian

*** tstart() called on cmpsrv002
*** at Thu Sep 19 14:23:58 2024

   => Loading Basis Set <=

    Name: THIS_BASIS
    Role: ORBITAL
    Keyword: BASIS
    atoms 1, 4-6 entry H          line    15 file /home/vance/anaconda3/envs/p4env/share/psi4/basis/def2-qzvp.gbs 
    atoms 2      entry BR         line  2253 file /home/vance/anaconda3/envs/p4env/share/psi4/basis/def2-qzvp.gbs 
    atoms 3      entry N          line   242 file /home/vance/anaconda3/envs/p4env/share/psi4/basis/def2-qzvp.gbs 


         ---------------------------------------------------------
                          SAPT(DFT): DFT Monomer A                 
         ---------------------------------------------------------
                                   SCF
               by Justin Turney, Rob Parrish, Andy Simmonett
                          and Daniel G. A. Smith
                              RKS Reference
                        4 Threads,   7629 MiB Core
         ---------------------------------------------------------

  ==> Geometry <==

    Molecular point group: c1
    Full point group: Cs

    Geometry (in Angstrom), charge = 0, multiplicity = 1:

       Center              X                  Y                   Z               Mass       
    ------------   -----------------  -----------------  -----------------  -----------------
         H            0.000022767418    -0.961388358650     0.000000000000     1.007825032230
         BR          -0.000007232582     0.552831641350     0.000000000000    78.918337600000
      Gh(N)           0.000032767418    -2.442888358650     0.000000000000    14.003074004430
      Gh(H)          -0.474347232582    -2.795358358650     0.821650000000     1.007825032230
      Gh(H)          -0.474347232582    -2.795358358650    -0.821650000000     1.007825032230
      Gh(H)           0.948782767418    -2.795358358650     0.000000000000     1.007825032230

  Running in c1 symmetry.

  Rotational constants: A =      6.19413  B =      0.12618  C =      0.12618 [cm^-1]
  Rotational constants: A = 185695.44926  B =   3782.68572  C =   3782.68521 [MHz]
  Nuclear repulsion =   12.231513498576831

  Charge       = 0
  Multiplicity = 1
  Electrons    = 36
  Nalpha       = 18
  Nbeta        = 18

  ==> Algorithm <==

  SCF Algorithm Type is DF.
  DIIS enabled.
  MOM disabled.
  Fractional occupation disabled.
  Guess Type is SAD.
  Energy threshold   = 1.00e-08
  Density threshold  = 1.00e-08
  Integral threshold = 1.00e-12

  ==> Primary Basis <==

  Basis Set: THIS_BASIS
    Blend: DEF2-QZVP
    Number of shells: 82
    Number of basis functions: 252
    Number of Cartesian functions: 303
    Spherical Harmonics?: true
    Max angular momentum: 4

  ==> DFT Potential <==

   => LibXC <=

    Version 6.2.2
    S. Lehtola, C. Steigemann, M. J.T. Oliveira, and M. A.L. Marques.,  SoftwareX 7, 15 (2018) (10.1016/j.softx.2017.11.002)

   => Composite Functional: PBE0 <= 

    PBE0 Hyb-GGA Exchange-Correlation Functional

    C. Adamo and V. Barone.,  J. Chem. Phys. 110, 6158 (1999) (10.1063/1.478522)
    M. Ernzerhof and G. E. Scuseria.,  J. Chem. Phys. 110, 5029 (1999) (10.1063/1.478401)

    Deriv               =              1
    GGA                 =           TRUE
    Meta                =          FALSE

    Exchange Hybrid     =           TRUE
    MP2 Hybrid          =          FALSE

   => Exchange Functionals <=

    0.7500   Perdew, Burke & Ernzerhof

   => Exact (HF) Exchange <=

    0.2500               HF 

   => Correlation Functionals <=

    1.0000   Perdew, Burke & Ernzerhof

   => LibXC Density Thresholds  <==

    XC_HYB_GGA_XC_PBEH:  1.00E-15 

   => Asymptotic Correction <=

    X Functional        =    XC_GGA_X_LB
    C Functional        =   XC_LDA_C_VWN
    Bulk Shift          =       0.106591
    GRAC Alpha          =       0.500000
    GRAC Beta           =      40.000000

   => Molecular Quadrature <=

    Radial Scheme          =       TREUTLER
    Pruning Scheme         =           NONE
    Nuclear Scheme         =       TREUTLER

    Blocking Scheme        =         OCTREE
    BS radius alpha        =              1
    Pruning alpha          =              1
    Radial Points          =             75
    Spherical Points       =            302
    Total Points           =         130077
    Total Blocks           =           1038
    Max Points             =            256
    Max Functions          =            239
    Weights Tolerance      =       1.00E-15

   => Loading Basis Set <=

    Name: (THIS_BASIS AUX)
    Role: JKFIT
    Keyword: DF_BASIS_SCF
    atoms 1, 4-6 entry H          line    18 file /home/vance/anaconda3/envs/p4env/share/psi4/basis/def2-universal-jkfit.gbs 
    atoms 2      entry BR         line  3124 file /home/vance/anaconda3/envs/p4env/share/psi4/basis/def2-universal-jkfit.gbs 
    atoms 3      entry N          line   258 file /home/vance/anaconda3/envs/p4env/share/psi4/basis/def2-universal-jkfit.gbs 

  ==> Integral Setup <==

  ==> DiskDFJK: Density-Fitted J/K Matrices <==

    J tasked:                  Yes
    K tasked:                  Yes
    wK tasked:                  No
    OpenMP threads:              4
    Integrals threads:           4
    Memory [MiB]:             4953
    Algorithm:                Core
    Integral Cache:           SAVE
    Schwarz Cutoff:          1E-12
    Fitting Condition:       1E-10

   => Auxiliary Basis Set <=

  Basis Set: (THIS_BASIS AUX)
    Blend: DEF2-UNIVERSAL-JKFIT
    Number of shells: 109
    Number of basis functions: 415
    Number of Cartesian functions: 544
    Spherical Harmonics?: true
    Max angular momentum: 5

  Cached 100.0% of DFT collocation blocks in 0.750 [GiB].

  Minimum eigenvalue in the overlap matrix is 1.0324733073E-04.
  Reciprocal condition number of the overlap matrix is 1.1908423008E-05.
    Using symmetric orthogonalization.

  ==> Pre-Iterations <==

  SCF Guess: Superposition of Atomic Densities via on-the-fly atomic UHF (no occupation information).

   -------------------------
    Irrep   Nso     Nmo    
   -------------------------
     A        252     252 
   -------------------------
    Total     252     252
   -------------------------

  ==> Iterations <==

                           Total Energy        Delta E     RMS |[F,P]|

   @DF-RKS iter SAD: -2572.87175135681446   -2.57287e+03   0.00000e+00 
   @DF-RKS iter   1: -2574.05667232178257   -1.18492e+00   8.58088e-03 ADIIS/DIIS
   @DF-RKS iter   2: -2573.97326745709961    8.34049e-02   9.00617e-03 ADIIS/DIIS
   @DF-RKS iter   3: -2574.50574959986761   -5.32482e-01   2.47418e-04 ADIIS/DIIS
   @DF-RKS iter   4: -2574.50663402212876   -8.84422e-04   2.06047e-04 ADIIS/DIIS
   @DF-RKS iter   5: -2574.50817478412091   -1.54076e-03   1.26590e-05 DIIS
   @DF-RKS iter   6: -2574.50817675672761   -1.97261e-06   2.10439e-06 DIIS
   @DF-RKS iter   7: -2574.50817700732614   -2.50599e-07   9.07019e-08 DIIS
   @DF-RKS iter   8: -2574.50817699985373    7.47241e-09   7.84013e-09 DIIS
  Energy and wave function converged.


  ==> Post-Iterations <==

   Electrons on quadrature grid:
      Ntotal   =   35.9999964787 ; deviation = -3.521e-06 

    Orbital Energies [Eh]
    ---------------------

    Doubly Occupied:                                                      

       1A   -483.380930     2A    -62.767751     3A    -56.542692  
       4A    -56.539096     5A    -56.539095     6A     -8.893454  
       7A     -6.703949     8A     -6.692852     9A     -6.692852  
      10A     -2.789676    11A     -2.786235    12A     -2.786235  
      13A     -2.777154    14A     -2.777154    15A     -0.912031  
      16A     -0.554577    17A     -0.427425    18A     -0.427425  

    Virtual:                                                              

      19A     -0.141777    20A     -0.019601    21A      0.010000  
      22A      0.014881    23A      0.014894    24A      0.083662  
      25A      0.096200    26A      0.096201    27A      0.127686  
      28A      0.127689    29A      0.197990    30A      0.214069  
      31A      0.214069    32A      0.256484    33A      0.261751  
      34A      0.261752    35A      0.340350    36A      0.395094  
      37A      0.395104    38A      0.496482    39A      0.500727  
      40A      0.500732    41A      0.565713    42A      0.661749  
      43A      0.661757    44A      0.706940    45A      0.763168  
      46A      0.786474    47A      0.786484    48A      0.815071  
      49A      0.821580    50A      0.854844    51A      0.854845  
      52A      0.890261    53A      0.891209    54A      0.945243  
      55A      0.945244    56A      0.964029    57A      0.964034  
      58A      0.998737    59A      0.998750    60A      1.042342  
      61A      1.099460    62A      1.173860    63A      1.173860  
      64A      1.190516    65A      1.213735    66A      1.213738  
      67A      1.277765    68A      1.330858    69A      1.330858  
      70A      1.355494    71A      1.355496    72A      1.392159  
      73A      1.439863    74A      1.569835    75A      1.569836  
      76A      1.786678    77A      1.879568    78A      1.879573  
      79A      1.979649    80A      2.049217    81A      2.049222  
      82A      2.129515    83A      2.129516    84A      2.141470  
      85A      2.330716    86A      2.334065    87A      2.362675  
      88A      2.362679    89A      2.381070    90A      2.381071  
      91A      2.449314    92A      2.449314    93A      2.475599  
      94A      2.533955    95A      2.540152    96A      2.540153  
      97A      2.577142    98A      2.577390    99A      2.593708  
     100A      2.593708   101A      2.621578   102A      2.621578  
     103A      2.631247   104A      2.632076   105A      2.690462  
     106A      2.690463   107A      2.738131   108A      2.738139  
     109A      2.751749   110A      2.810102   111A      2.810104  
     112A      2.830745   113A      2.933207   114A      2.933216  
     115A      2.949332   116A      3.053556   117A      3.070436  
     118A      3.070441   119A      3.195337   120A      3.265933  
     121A      3.265935   122A      3.276196   123A      3.287297  
     124A      3.373519   125A      3.373520   126A      3.522430  
     127A      3.540836   128A      3.540838   129A      3.703671  
     130A      3.703676   131A      3.734470   132A      3.829562  
     133A      3.829564   134A      3.878786   135A      4.150780  
     136A      4.150781   137A      4.182174   138A      4.184079  
     139A      4.321171   140A      4.354705   141A      4.354710  
     142A      4.553585   143A      4.837184   144A      4.837184  
     145A      4.896481   146A      4.896481   147A      5.078714  
     148A      5.078715   149A      5.239533   150A      5.525534  
     151A      5.673800   152A      5.688542   153A      5.801751  
     154A      5.801765   155A      6.036321   156A      6.036330  
     157A      6.329836   158A      6.329838   159A      6.367372  
     160A      6.367382   161A      6.405070   162A      6.568582  
     163A      6.568592   164A      6.593497   165A      6.904359  
     166A      6.904364   167A      6.932309   168A      7.085638  
     169A      7.085641   170A      7.243290   171A      7.251706  
     172A      7.400090   173A      7.400094   174A      7.506089  
     175A      7.643070   176A      7.643081   177A      7.712591  
     178A      7.826357   179A      7.837227   180A      7.837344  
     181A      7.941968   182A      7.942043   183A      7.945086  
     184A      8.038337   185A      8.129788   186A      8.129797  
     187A      8.236420   188A      8.402957   189A      8.402971  
     190A      8.485185   191A      8.485189   192A      8.545389  
     193A      8.558155   194A      8.558156   195A      8.632613  
     196A      8.653001   197A      8.653005   198A      8.830311  
     199A      8.831241   200A      8.897580   201A      8.897584  
     202A      8.941987   203A      9.097985   204A      9.153565  
     205A      9.153569   206A      9.186891   207A      9.317477  
     208A      9.317478   209A      9.334401   210A      9.629483  
     211A      9.667257   212A      9.667259   213A      9.808277  
     214A      9.931652   215A      9.931664   216A     10.050800  
     217A     10.229607   218A     10.229618   219A     10.672452  
     220A     10.672472   221A     10.793794   222A     10.876219  
     223A     10.876237   224A     11.009813   225A     11.681567  
     226A     11.681581   227A     11.929978   228A     12.179087  
     229A     12.179136   230A     12.669711   231A     13.510251  
     232A     13.513971   233A     13.513971   234A     13.705650  
     235A     13.705670   236A     13.956850   237A     14.028033  
     238A     14.114152   239A     14.114173   240A     14.415421  
     241A     14.415450   242A     14.489791   243A     15.983277  
     244A     18.106648   245A     18.106670   246A     25.424235  
     247A     29.149260   248A     70.196805   249A     94.862761  
     250A    318.614598   251A    321.788444   252A   1819.352840  

    Final Occupation by Irrep:
              A 
    DOCC [    18 ]
    NA   [    18 ]
    NB   [    18 ]

  @DF-RKS Final Energy: -2574.50817699985373

   => Energetics <=

    Nuclear Repulsion Energy =             12.2315134985768310
    One-Electron Energy =               -3607.2510446460496496
    Two-Electron Energy =                1089.3929302685999119
    DFT Exchange-Correlation Energy =     -68.8815761209806681
    Empirical Dispersion Energy =           0.0000000000000000
    VV10 Nonlocal Energy =                  0.0000000000000000
    Total Energy =                      -2574.5081769998532764

Computation Completed


Properties will be evaluated at   0.000000,   0.000000,   0.000000 [a0]

Properties computed using the SCF density matrix


 Multipole Moments:

 ------------------------------------------------------------------------------------
     Multipole            Electronic (a.u.)      Nuclear  (a.u.)        Total (a.u.)
 ------------------------------------------------------------------------------------

 L = 1.  Multiply by 2.5417464519 to convert [e a0] to [Debye]
 Dipole X            :          0.0004429           -0.0004353            0.0000076
 Dipole Y            :        -35.1224535           34.7477531           -0.3747003
 Dipole Z            :         -0.0000000            0.0000000           -0.0000000
 Magnitude           :                                                    0.3747003

 ------------------------------------------------------------------------------------

*** tstop() called on cmpsrv002 at Thu Sep 19 14:26:17 2024
Module time:
	user time   =      20.63 seconds =       0.34 minutes
	system time =       1.52 seconds =       0.03 minutes
	total time  =        139 seconds =       2.32 minutes
Total time:
	user time   =      66.66 seconds =       1.11 minutes
	system time =       5.24 seconds =       0.09 minutes
	total time  =        614 seconds =      10.23 minutes
   => Libint2 <=

    Primary   basis highest AM E, G, H:  6, 6, 3
    Auxiliary basis highest AM E, G, H:  7, 7, 4
    Onebody   basis highest AM E, G, H:  -, -, -
    Solid Harmonics ordering:            Gaussian

*** tstart() called on cmpsrv002
*** at Thu Sep 19 14:26:17 2024

   => Loading Basis Set <=

    Name: THIS_BASIS
    Role: ORBITAL
    Keyword: BASIS
    atoms 1, 4-6 entry H          line    15 file /home/vance/anaconda3/envs/p4env/share/psi4/basis/def2-qzvp.gbs 
    atoms 2      entry BR         line  2253 file /home/vance/anaconda3/envs/p4env/share/psi4/basis/def2-qzvp.gbs 
    atoms 3      entry N          line   242 file /home/vance/anaconda3/envs/p4env/share/psi4/basis/def2-qzvp.gbs 


         ---------------------------------------------------------
                          SAPT(DFT): DFT Monomer B                 
         ---------------------------------------------------------
                                   SCF
               by Justin Turney, Rob Parrish, Andy Simmonett
                          and Daniel G. A. Smith
                              RKS Reference
                        4 Threads,   7629 MiB Core
         ---------------------------------------------------------

  ==> Geometry <==

    Molecular point group: c1
    Full point group: Cs

    Geometry (in Angstrom), charge = 0, multiplicity = 1:

       Center              X                  Y                   Z               Mass       
    ------------   -----------------  -----------------  -----------------  -----------------
      Gh(H)           0.000022767418    -0.961388358650     0.000000000000     1.007825032230
      Gh(BR)         -0.000007232582     0.552831641350     0.000000000000    78.918337600000
         N            0.000032767418    -2.442888358650     0.000000000000    14.003074004430
         H           -0.474347232582    -2.795358358650     0.821650000000     1.007825032230
         H           -0.474347232582    -2.795358358650    -0.821650000000     1.007825032230
         H            0.948782767418    -2.795358358650     0.000000000000     1.007825032230

  Running in c1 symmetry.

  Rotational constants: A =      6.19413  B =      0.12618  C =      0.12618 [cm^-1]
  Rotational constants: A = 185695.44926  B =   3782.68572  C =   3782.68521 [MHz]
  Nuclear repulsion =   11.945783476959880

  Charge       = 0
  Multiplicity = 1
  Electrons    = 10
  Nalpha       = 5
  Nbeta        = 5

  ==> Algorithm <==

  SCF Algorithm Type is DF.
  DIIS enabled.
  MOM disabled.
  Fractional occupation disabled.
  Guess Type is SAD.
  Energy threshold   = 1.00e-08
  Density threshold  = 1.00e-08
  Integral threshold = 1.00e-12

  ==> Primary Basis <==

  Basis Set: THIS_BASIS
    Blend: DEF2-QZVP
    Number of shells: 82
    Number of basis functions: 252
    Number of Cartesian functions: 303
    Spherical Harmonics?: true
    Max angular momentum: 4

  ==> DFT Potential <==

   => LibXC <=

    Version 6.2.2
    S. Lehtola, C. Steigemann, M. J.T. Oliveira, and M. A.L. Marques.,  SoftwareX 7, 15 (2018) (10.1016/j.softx.2017.11.002)

   => Composite Functional: PBE0 <= 

    PBE0 Hyb-GGA Exchange-Correlation Functional

    C. Adamo and V. Barone.,  J. Chem. Phys. 110, 6158 (1999) (10.1063/1.478522)
    M. Ernzerhof and G. E. Scuseria.,  J. Chem. Phys. 110, 5029 (1999) (10.1063/1.478401)

    Deriv               =              1
    GGA                 =           TRUE
    Meta                =          FALSE

    Exchange Hybrid     =           TRUE
    MP2 Hybrid          =          FALSE

   => Exchange Functionals <=

    0.7500   Perdew, Burke & Ernzerhof

   => Exact (HF) Exchange <=

    0.2500               HF 

   => Correlation Functionals <=

    1.0000   Perdew, Burke & Ernzerhof

   => LibXC Density Thresholds  <==

    XC_HYB_GGA_XC_PBEH:  1.00E-15 

   => Asymptotic Correction <=

    X Functional        =    XC_GGA_X_LB
    C Functional        =   XC_LDA_C_VWN
    Bulk Shift          =       0.113162
    GRAC Alpha          =       0.500000
    GRAC Beta           =      40.000000

   => Molecular Quadrature <=

    Radial Scheme          =       TREUTLER
    Pruning Scheme         =           NONE
    Nuclear Scheme         =       TREUTLER

    Blocking Scheme        =         OCTREE
    BS radius alpha        =              1
    Pruning alpha          =              1
    Radial Points          =             75
    Spherical Points       =            302
    Total Points           =         130077
    Total Blocks           =           1038
    Max Points             =            256
    Max Functions          =            239
    Weights Tolerance      =       1.00E-15

   => Loading Basis Set <=

    Name: (THIS_BASIS AUX)
    Role: JKFIT
    Keyword: DF_BASIS_SCF
    atoms 1, 4-6 entry H          line    18 file /home/vance/anaconda3/envs/p4env/share/psi4/basis/def2-universal-jkfit.gbs 
    atoms 2      entry BR         line  3124 file /home/vance/anaconda3/envs/p4env/share/psi4/basis/def2-universal-jkfit.gbs 
    atoms 3      entry N          line   258 file /home/vance/anaconda3/envs/p4env/share/psi4/basis/def2-universal-jkfit.gbs 

  ==> Integral Setup <==

  ==> DiskDFJK: Density-Fitted J/K Matrices <==

    J tasked:                  Yes
    K tasked:                  Yes
    wK tasked:                  No
    OpenMP threads:              4
    Integrals threads:           4
    Memory [MiB]:             4953
    Algorithm:                Core
    Integral Cache:           SAVE
    Schwarz Cutoff:          1E-12
    Fitting Condition:       1E-10

   => Auxiliary Basis Set <=

  Basis Set: (THIS_BASIS AUX)
    Blend: DEF2-UNIVERSAL-JKFIT
    Number of shells: 109
    Number of basis functions: 415
    Number of Cartesian functions: 544
    Spherical Harmonics?: true
    Max angular momentum: 5

  Cached 100.0% of DFT collocation blocks in 0.750 [GiB].

  Minimum eigenvalue in the overlap matrix is 1.0324733073E-04.
  Reciprocal condition number of the overlap matrix is 1.1908423008E-05.
    Using symmetric orthogonalization.

  ==> Pre-Iterations <==

  SCF Guess: Superposition of Atomic Densities via on-the-fly atomic UHF (no occupation information).

   -------------------------
    Irrep   Nso     Nmo    
   -------------------------
     A        252     252 
   -------------------------
    Total     252     252
   -------------------------

  ==> Iterations <==

                           Total Energy        Delta E     RMS |[F,P]|

   @DF-RKS iter SAD:   -56.06908465079368   -5.60691e+01   0.00000e+00 
   @DF-RKS iter   1:   -56.28004246394252   -2.10958e-01   3.08540e-03 ADIIS/DIIS
   @DF-RKS iter   2:   -56.01559286689659    2.64450e-01   4.05766e-03 ADIIS/DIIS
   @DF-RKS iter   3:   -56.51870500921348   -5.03112e-01   2.19555e-04 ADIIS/DIIS
   @DF-RKS iter   4:   -56.52023638104819   -1.53137e-03   1.91752e-05 DIIS
   @DF-RKS iter   5:   -56.52024375330476   -7.37226e-06   5.07639e-06 DIIS
   @DF-RKS iter   6:   -56.52024378710319   -3.37984e-08   1.99250e-07 DIIS
   @DF-RKS iter   7:   -56.52024374482718    4.22760e-08   2.51327e-08 DIIS
   @DF-RKS iter   8:   -56.52024373504271    9.78447e-09   3.09793e-09 DIIS
  Energy and wave function converged.


  ==> Post-Iterations <==

   Electrons on quadrature grid:
      Ntotal   =    9.9999946484 ; deviation = -5.352e-06 

    Orbital Energies [Eh]
    ---------------------

    Doubly Occupied:                                                      

       1A    -14.471671     2A     -0.987232     3A     -0.590981  
       4A     -0.590980     5A     -0.391689  

    Virtual:                                                              

       6A     -0.084428     7A     -0.015546     8A     -0.015544  
       9A      0.007643    10A      0.070407    11A      0.070413  
      12A      0.107635    13A      0.134514    14A      0.134514  
      15A      0.145320    16A      0.245194    17A      0.263532  
      18A      0.270154    19A      0.270154    20A      0.307646  
      21A      0.307649    22A      0.396721    23A      0.509787  
      24A      0.545757    25A      0.545759    26A      0.596490  
      27A      0.596502    28A      0.614535    29A      0.632272  
      30A      0.632276    31A      0.657713    32A      0.679853  
      33A      0.679854    34A      0.702562    35A      0.740874  
      36A      0.782797    37A      0.782804    38A      0.821344  
      39A      0.821356    40A      0.846456    41A      0.940884  
      42A      0.940890    43A      1.054405    44A      1.055920  
      45A      1.055922    46A      1.069291    47A      1.076289  
      48A      1.198387    49A      1.198390    50A      1.291270  
      51A      1.327989    52A      1.328003    53A      1.334262  
      54A      1.337182    55A      1.418160    56A      1.578128  
      57A      1.578129    58A      1.645599    59A      1.698479  
      60A      1.698485    61A      1.769565    62A      1.777665  
      63A      1.777667    64A      1.978444    65A      1.978446  
      66A      2.013105    67A      2.019913    68A      2.040547  
      69A      2.089185    70A      2.089187    71A      2.177076  
      72A      2.177080    73A      2.243145    74A      2.243145  
      75A      2.269923    76A      2.269924    77A      2.287636  
      78A      2.352518    79A      2.354827    80A      2.354834  
      81A      2.381981    82A      2.381991    83A      2.427576  
      84A      2.524287    85A      2.525025    86A      2.525035  
      87A      2.598515    88A      2.598516    89A      2.641953  
      90A      2.777572    91A      2.777584    92A      2.805662  
      93A      2.847971    94A      2.847972    95A      2.892889  
      96A      2.906818    97A      2.906833    98A      2.988331  
      99A      3.020058   100A      3.109513   101A      3.109519  
     102A      3.215612   103A      3.439245   104A      3.460988  
     105A      3.467871   106A      3.471681   107A      3.471711  
     108A      3.545933   109A      3.545939   110A      3.635186  
     111A      3.635189   112A      3.683308   113A      3.683341  
     114A      3.784382   115A      3.798387   116A      3.997783  
     117A      3.997786   118A      4.036745   119A      4.189746  
     120A      4.189758   121A      4.198914   122A      4.389513  
     123A      4.389513   124A      4.389785   125A      4.390813  
     126A      4.399563   127A      4.399579   128A      4.420555  
     129A      4.497262   130A      4.497262   131A      4.611904  
     132A      4.712812   133A      4.712814   134A      5.020258  
     135A      5.020265   136A      5.069802   137A      5.280981  
     138A      5.633319   139A      5.791151   140A      5.791170  
     141A      5.853011   142A      5.853012   143A      5.891935  
     144A      5.943103   145A      5.943114   146A      6.031330  
     147A      6.125412   148A      6.147386   149A      6.289123  
     150A      6.304800   151A      6.304812   152A      6.516509  
     153A      6.610677   154A      6.610677   155A      6.697672  
     156A      6.697676   157A      6.825128   158A      6.825133  
     159A      6.841035   160A      6.890011   161A      6.999188  
     162A      6.999192   163A      7.096325   164A      7.096327  
     165A      7.158568   166A      7.158580   167A      7.238041  
     168A      7.238058   169A      7.245855   170A      7.381269  
     171A      7.478733   172A      7.530833   173A      7.530837  
     174A      7.607218   175A      7.693814   176A      7.693819  
     177A      7.788423   178A      7.788429   179A      7.824401  
     180A      7.958461   181A      7.982996   182A      7.983005  
     183A      8.063899   184A      8.072934   185A      8.144521  
     186A      8.144525   187A      8.169174   188A      8.272605  
     189A      8.394291   190A      8.394301   191A      8.445018  
     192A      8.445024   193A      8.539717   194A      8.541871  
     195A      8.541883   196A      8.647047   197A      8.813654  
     198A      8.813759   199A      8.944704   200A      8.944707  
     201A      9.139282   202A      9.176556   203A      9.176564  
     204A      9.449267   205A      9.449274   206A      9.509172  
     207A      9.633537   208A      9.633553   209A      9.764092  
     210A      9.764106   211A      9.775479   212A      9.938201  
     213A     10.002523   214A     10.002524   215A     10.060098  
     216A     10.588794   217A     10.860035   218A     10.860035  
     219A     11.057971   220A     11.138128   221A     11.138143  
     222A     11.374759   223A     11.580954   224A     11.583463  
     225A     11.583477   226A     11.698040   227A     11.784222  
     228A     11.784266   229A     11.899971   230A     12.917911  
     231A     14.297260   232A     14.297266   233A     15.168522  
     234A     28.592489   235A     28.592489   236A     28.896434  
     237A     29.217671   238A     35.143350   239A     35.143350  
     240A     35.346021   241A     35.346022   242A     36.106791  
     243A     38.394206   244A     64.543163   245A    141.462554  
     246A    164.904157   247A    164.904157   248A    165.359161  
     249A    197.909259   250A    325.104836   251A    874.380374  
     252A   3948.560653  

    Final Occupation by Irrep:
              A 
    DOCC [     5 ]
    NA   [     5 ]
    NB   [     5 ]

  @DF-RKS Final Energy:   -56.52024373504271

   => Energetics <=

    Nuclear Repulsion Energy =             11.9457834769598801
    One-Electron Energy =                 -99.6861607806855972
    Two-Electron Energy =                  37.2630469257738781
    DFT Exchange-Correlation Energy =      -6.0429133570908675
    Empirical Dispersion Energy =           0.0000000000000000
    VV10 Nonlocal Energy =                  0.0000000000000000
    Total Energy =                        -56.5202437350427118

Computation Completed


Properties will be evaluated at   0.000000,   0.000000,   0.000000 [a0]

Properties computed using the SCF density matrix


 Multipole Moments:

 ------------------------------------------------------------------------------------
     Multipole            Electronic (a.u.)      Nuclear  (a.u.)        Total (a.u.)
 ------------------------------------------------------------------------------------

 L = 1.  Multiply by 2.5417464519 to convert [e a0] to [Debye]
 Dipole X            :         -0.0006000            0.0006003            0.0000003
 Dipole Y            :         47.5857358          -48.1621148           -0.5763790
 Dipole Z            :          0.0000000            0.0000000            0.0000000
 Magnitude           :                                                    0.5763790

 ------------------------------------------------------------------------------------

*** tstop() called on cmpsrv002 at Thu Sep 19 14:28:03 2024
Module time:
	user time   =      36.30 seconds =       0.60 minutes
	system time =       1.53 seconds =       0.03 minutes
	total time  =        106 seconds =       1.77 minutes
Total time:
	user time   =     102.96 seconds =       1.72 minutes
	system time =       6.77 seconds =       0.11 minutes
	total time  =        720 seconds =      12.00 minutes

         ---------------------------------------------------------
               SAPT(DFT): Intermolecular Interaction Segment       

                   by Daniel G. A. Smith and Rob Parrish           
         ---------------------------------------------------------

  ==> Algorithm <==

   SAPT DFT Functional             PBE0
   Monomer A GRAC Shift        0.106591
   Monomer B GRAC Shift        0.113162
   Delta HF                        True
   JK Algorithm                      DF

  ==> Preparing SAPT Data Cache <== 

  ==> DiskDFJK: Density-Fitted J/K Matrices <==

    J tasked:                  Yes
    K tasked:                  Yes
    wK tasked:                  No
    OpenMP threads:              4
    Integrals threads:           4
    Memory [MiB]:             4953
    Algorithm:                Core
    Integral Cache:           SAVE
    Schwarz Cutoff:          1E-12
    Fitting Condition:       1E-10

   => Auxiliary Basis Set <=

  Basis Set: (THIS_BASIS AUX)
    Blend: DEF2-UNIVERSAL-JKFIT
    Number of shells: 109
    Number of basis functions: 415
    Number of Cartesian functions: 544
    Spherical Harmonics?: true
    Max angular momentum: 5


  ==> E10 Electostatics <== 

    Elst10,r                        -55.70303886 [mEh]

  ==> E10 Exchange <== 

    Exch10(S^2)                      94.14011711 [mEh]
    Exch10                          101.17394595 [mEh]

  ==> E20 Induction <== 

   => Uncoupled Induction <= 

    Ind20,u (A<-B)                  -23.32650522 [mEh]
    Ind20,u (A->B)                  -39.33124962 [mEh]
    Ind20,u                         -62.65775484 [mEh]
    Exch-Ind20,u (A<-B)              17.30442387 [mEh]
    Exch-Ind20,u (A->B)              21.02851360 [mEh]
    Exch-Ind20,u                     38.33293747 [mEh]
    Exch-Ind20,u (A<-B) (S^inf)      20.25339450 [mEh]
    Exch-Ind20,u (A->B) (S^inf)      24.91522143 [mEh]
    Exch-Ind20,u (S^inf)             45.16861593 [mEh]

   => Coupled Induction <= 

   ---------------------------------------------------
              SAPT Coupled Induction Solver           
   ---------------------------------------------------
    Maxiter             =          20
    Convergence         =   1.000E-06
   ---------------------------------------------------
     Iter       (A<-B)           (B->A)      Time [s]
   ---------------------------------------------------
    Guess    1.221625e-01     1.159442e-01          4
        1    3.010074e-02     4.221178e-02          8
        2    9.376978e-03     1.440847e-02         12
        3    3.767253e-03     1.268246e-03         16
        4    5.075213e-04     1.000858e-04         19
        5    5.660742e-05     7.138932e-06         22
        6    4.807245e-06     6.615641e-07*        32
        7    5.331772e-07*    6.615641e-07*        33
   ---------------------------------------------------

    Ind20,r (A<-B)                  -24.27129126 [mEh]
    Ind20,r (A->B)                  -41.57398703 [mEh]
    Ind20,r                         -65.84527828 [mEh]
    Exch-Ind20,r (A<-B)              18.80888532 [mEh]
    Exch-Ind20,r (A->B)              23.35875458 [mEh]
    Exch-Ind20,r                     42.16763990 [mEh]
    Exch-Ind20,r (A<-B) (S^inf)      22.03864008 [mEh]
    Exch-Ind20,r (A->B) (S^inf)      27.73180828 [mEh]
    Exch-Ind20,r (S^inf)             49.77044836 [mEh]
   => Loading Basis Set <=

    Name: (THIS_BASIS AUX)
    Role: RIFIT
    Keyword: DF_BASIS_MP2
    atoms 1, 4-6 entry H          line    23 file /home/vance/anaconda3/envs/p4env/share/psi4/basis/def2-qzvp-ri.gbs 
    atoms 2      entry BR         line  2543 file /home/vance/anaconda3/envs/p4env/share/psi4/basis/def2-qzvp-ri.gbs 
    atoms 3      entry N          line   337 file /home/vance/anaconda3/envs/p4env/share/psi4/basis/def2-qzvp-ri.gbs 



  ==> E20 Dispersion (CHF FDDS) <== 

   Legendre Points:          10
   Lambda Shift:          0.300
   Fxc Kernal:             ALDA
   (P|Fxc|Q) Thresh:  1.000e-06
  DFHelper Memory: AOs need 0.454 GiB; user supplied 5.960 GiB. 
  Using in-core AOs.

  ==> DFHelper <==
    NBF:                             252
    NAux:                            961
    Schwarz Cutoff:                1E-12
    Mask sparsity (%):                 6
    DFH Avail. Memory [GiB]:       5.960
    OpenMP threads:                    4
    Algorithm:                    DIRECT
    AO Core:                        True
    MO Core:                       False
    Hold Metric:                   False
    Metric Power:                  0.000
    Fitting Condition:             1E-12
    Q Shell Max:                      13


  DFHelper Memory: AOs need 0.482 GiB; user supplied 5.960 GiB. 
  Using in-core AOs.


   => Time Integration <= 

       Omega       Weight       Disp20,u         Disp20   time [s]
   2.269e+01    6.667e-02      5.835e-04      5.503e-04          5
   4.147e+00    1.495e-01      8.984e-03      8.132e-03         14
   1.572e+00    2.191e-01      2.429e-02      2.033e-02         19
   7.589e-01    2.693e-01      3.773e-02      2.847e-02         22
   4.049e-01    2.955e-01      4.053e-02      2.743e-02         26
   2.223e-01    2.955e-01      3.307e-02      2.084e-02         30
   1.186e-01    2.693e-01      2.281e-02      1.391e-02         35
   5.727e-02    2.191e-01      1.431e-02      8.625e-03         39
   2.170e-02    1.495e-01      8.037e-03      4.828e-03         42
   3.966e-03    6.667e-02      3.209e-03      1.927e-03         45

    Disp20,u                        -30.80477822 [mEh]
    Disp20                          -21.49267269 [mEh]

  ==> E20 Dispersion (MP2) <== 


    Disp20 (MP2)                    -30.74913133 [mEh]
    Exch-Disp20,u                     6.46204945 [mEh]
    Scaling Scheme                    FIXED
    Scaling Factor                    0.770
    Est. Exch-Disp20,r                4.97577808 [mEh]

   SAPT(DFT) Results
  ---------------------------------------------------------------------------------------------------------
    Electrostatics                  -55.70303886 [mEh]    -34.95418460 [kcal/mol]   -146.24830838 [kJ/mol]
      Elst1,r                       -55.70303886 [mEh]    -34.95418460 [kcal/mol]   -146.24830838 [kJ/mol]

    Exchange                        101.17394595 [mEh]     63.48760958 [kcal/mol]    265.63215849 [kJ/mol]
      Exch1                         101.17394595 [mEh]     63.48760958 [kcal/mol]    265.63215849 [kJ/mol]
      Exch1(S^2)                     94.14011711 [mEh]     59.07381535 [kcal/mol]    247.16484341 [kJ/mol]

    Induction                       -49.22693195 [mEh]    -30.89036616 [kcal/mol]   -129.24529202 [kJ/mol]
      Ind2,r                        -65.84527828 [mEh]    -41.31853593 [kcal/mol]   -172.87675432 [kJ/mol]
      Exch-Ind2,r                    42.16763990 [mEh]     26.46059352 [kcal/mol]    110.71112329 [kJ/mol]
      Induction (A<-B)               -5.46240594 [mEh]     -3.42771148 [kcal/mol]    -14.34154481 [kJ/mol]
      Induction (A->B)              -18.21523245 [mEh]    -11.43023093 [kcal/mol]    -47.82408621 [kJ/mol]
      delta HF,r (2)                -25.54929356 [mEh]    -16.03242376 [kcal/mol]    -67.07966100 [kJ/mol]

    Dispersion                      -16.51689461 [mEh]    -10.36450784 [kcal/mol]    -43.36510081 [kJ/mol]
      Disp2,r                       -21.49267269 [mEh]    -13.48685573 [kcal/mol]    -56.42900436 [kJ/mol]
      Disp2,u                       -30.74913133 [mEh]    -19.29537122 [kcal/mol]    -80.73183319 [kJ/mol]
      Est. Exch-Disp2,r               4.97577808 [mEh]      3.12234788 [kcal/mol]     13.06390355 [kJ/mol]
      Exch-Disp2,u                    6.46204945 [mEh]      4.05499725 [kcal/mol]     16.96610851 [kJ/mol]

    Total SAPT(DFT)                 -20.27291947 [mEh]    -12.72144903 [kcal/mol]    -53.22654273 [kJ/mol]
  ---------------------------------------------------------------------------------------------------------

*** tstop() called on cmpsrv002 at Thu Sep 19 15:22:34 2024
Module time:
	user time   =     388.95 seconds =       6.48 minutes
	system time =      33.47 seconds =       0.56 minutes
	total time  =       3377 seconds =      56.28 minutes
Total time:
	user time   =     455.61 seconds =       7.59 minutes
	system time =      38.71 seconds =       0.65 minutes
	total time  =       3991 seconds =      66.52 minutes

    Psi4 stopped on: Thursday, 19 September 2024 03:22PM
    Psi4 wall time for execution: 1:06:31.58

*** Psi4 exiting successfully. Buy a developer a beer!
