
    -----------------------------------------------------------------------
          Psi4: An Open-Source Ab Initio Electronic Structure Package
                               Psi4 1.9.1 release

                         Git: Rev {} zzzzzzz 


    D. G. A. Smith, L. A. Burns, A. C. Simmonett, R. M. Parrish,
    M. C. Schieber, R. Galvelis, P. Kraus, H. Kruse, R. Di Remigio,
    A. Alenaizan, A. M. James, S. Lehtola, J. P. Misiewicz, M. Scheurer,
    R. A. Shaw, J. B. Schriber, Y. Xie, Z. L. Glick, D. A. Sirianni,
    J. S. O'Brien, J. M. Waldrop, A. Kumar, E. G. Hohenstein,
    B. P. Pritchard, B. R. Brooks, H. F. Schaefer III, A. Yu. Sokolov,
    K. Patkowski, A. E. DePrince III, U. Bozkaya, R. A. King,
    F. A. Evangelista, J. M. Turney, T. D. Crawford, C. D. Sherrill,
    J. Chem. Phys. 152(18) 184108 (2020). https://doi.org/10.1063/5.0006002

                            Additional Code Authors
    E. T. Seidl, C. L. Janssen, E. F. Valeev, M. L. Leininger,
    J. F. Gonthier, R. M. Richard, H. R. McAlexander, M. Saitow, X. Wang,
    P. Verma, M. H. Lechner, A. Jiang, S. Behnle, A. G. Heide,
    M. F. Herbst, and D. L. Poole

             Previous Authors, Complete List of Code Contributors,
                       and Citations for Specific Modules
    https://github.com/psi4/psi4/blob/master/codemeta.json
    https://github.com/psi4/psi4/graphs/contributors
    http://psicode.org/psi4manual/master/introduction.html#citing-psifour

    -----------------------------------------------------------------------


    Psi4 started on: Thursday, 19 September 2024 02:16PM

    Process ID: 605875
    Host:       cmpsrv002
    PSIDATADIR: /home/vance/anaconda3/envs/p4env/share/psi4
    Memory:     500.0 MiB
    Threads:    8
    
  ==> Input File <==

--------------------------------------------------------------------------
#charge=0 charge_a=0 charge_b=0 selection_a=1-2 selection_b=3-6 scaling=1.05 benchmark_Eint=-9.769 benchmark_unit=kcal/mol group=XH-N
set_num_threads(4)
memory 8 GB
basis this_basis {
    assign    def2-qzvp
}

molecule {
     0 1
    --
     0 1
     H        0.00002       -0.93248        0.00000
    Br       -0.00001        0.58174        0.00000
    --
     0 1
     N        0.00003       -2.66090        0.00000
     H       -0.47435       -3.01337        0.82165
     H       -0.47435       -3.01337       -0.82165
     H        0.94878       -3.01337        0.00000
}

set {
    sapt_dft_functional     PBE0
    scf_type                DF
    freeze_core             true
    sapt_dft_grac_shift_a    0.106591
    sapt_dft_grac_shift_b    0.113162
    sapt_dft_do_hybrid      true
    do_ind_exch_sinf        true
    do_disp_exch_sinf       true
}

nrg = energy('sapt(DFT)')
--------------------------------------------------------------------------
  Threads set to 4 by Python driver.

  Memory set to   7.451 GiB by Python driver.

Scratch directory: /scratch2/vance/psi4/

*** tstart() called on cmpsrv002
*** at Thu Sep 19 14:16:09 2024

  SAPT does not make use of molecular symmetry, further calculations in C1 point group.

         ---------------------------------------------------------
                            SAPT(DFT) Procedure                    

                           by Daniel G. A. Smith                   
         ---------------------------------------------------------

Warning! The default value of SAPT_DFT_EXCH_DISP_SCALE_SCHEME has changed from DISP to FIXED. Please be careful comparing results with earlier versions. 

  ==> Algorithm <==

   SAPT DFT Functional             PBE0
   Monomer A GRAC Shift        0.106591
   Monomer B GRAC Shift        0.113162
   Delta HF                        True
   JK Algorithm                      DF

   Required computations:
     HF  (Dimer)
     HF  (Monomer A)
     HF  (Monomer B)
     DFT (Monomer A)
     DFT (Monomer B)

   => Libint2 <=

    Primary   basis highest AM E, G, H:  6, 6, 3
    Auxiliary basis highest AM E, G, H:  7, 7, 4
    Onebody   basis highest AM E, G, H:  -, -, -
    Solid Harmonics ordering:            Gaussian

*** tstart() called on cmpsrv002
*** at Thu Sep 19 14:16:09 2024

   => Loading Basis Set <=

    Name: THIS_BASIS
    Role: ORBITAL
    Keyword: BASIS
    atoms 1, 4-6 entry H          line    15 file /home/vance/anaconda3/envs/p4env/share/psi4/basis/def2-qzvp.gbs 
    atoms 2      entry BR         line  2253 file /home/vance/anaconda3/envs/p4env/share/psi4/basis/def2-qzvp.gbs 
    atoms 3      entry N          line   242 file /home/vance/anaconda3/envs/p4env/share/psi4/basis/def2-qzvp.gbs 


         ---------------------------------------------------------
                         SAPT(DFT): delta HF Dimer                 
         ---------------------------------------------------------
                                   SCF
               by Justin Turney, Rob Parrish, Andy Simmonett
                          and Daniel G. A. Smith
                              RHF Reference
                        4 Threads,   7629 MiB Core
         ---------------------------------------------------------

  ==> Geometry <==

    Molecular point group: c1
    Full point group: Cs

    Geometry (in Angstrom), charge = 0, multiplicity = 1:

       Center              X                  Y                   Z               Mass       
    ------------   -----------------  -----------------  -----------------  -----------------
         H            0.000022767418    -0.918024996978     0.000000000000     1.007825032230
         BR          -0.000007232582     0.596195003022     0.000000000000    78.918337600000
         N            0.000032767418    -2.646444996978     0.000000000000    14.003074004430
         H           -0.474347232582    -2.998914996978     0.821650000000     1.007825032230
         H           -0.474347232582    -2.998914996978    -0.821650000000     1.007825032230
         H            0.948782767418    -2.998914996978     0.000000000000     1.007825032230

  Running in c1 symmetry.

  Rotational constants: A =      6.19413  B =      0.10839  C =      0.10839 [cm^-1]
  Rotational constants: A = 185695.44926  B =   3249.48133  C =   3249.48095 [MHz]
  Nuclear repulsion =   81.940676800672406

  Charge       = 0
  Multiplicity = 1
  Electrons    = 46
  Nalpha       = 23
  Nbeta        = 23

  ==> Algorithm <==

  SCF Algorithm Type is DF.
  DIIS enabled.
  MOM disabled.
  Fractional occupation disabled.
  Guess Type is SAD.
  Energy threshold   = 1.00e-08
  Density threshold  = 1.00e-08
  Integral threshold = 1.00e-12

  ==> Primary Basis <==

  Basis Set: THIS_BASIS
    Blend: DEF2-QZVP
    Number of shells: 82
    Number of basis functions: 252
    Number of Cartesian functions: 303
    Spherical Harmonics?: true
    Max angular momentum: 4

   => Loading Basis Set <=

    Name: (THIS_BASIS AUX)
    Role: JKFIT
    Keyword: DF_BASIS_SCF
    atoms 1, 4-6 entry H          line    18 file /home/vance/anaconda3/envs/p4env/share/psi4/basis/def2-universal-jkfit.gbs 
    atoms 2      entry BR         line  3124 file /home/vance/anaconda3/envs/p4env/share/psi4/basis/def2-universal-jkfit.gbs 
    atoms 3      entry N          line   258 file /home/vance/anaconda3/envs/p4env/share/psi4/basis/def2-universal-jkfit.gbs 

  ==> Integral Setup <==

  ==> DiskDFJK: Density-Fitted J/K Matrices <==

    J tasked:                  Yes
    K tasked:                  Yes
    wK tasked:                  No
    OpenMP threads:              4
    Integrals threads:           4
    Memory [MiB]:             5722
    Algorithm:                Core
    Integral Cache:           SAVE
    Schwarz Cutoff:          1E-12
    Fitting Condition:       1E-10

   => Auxiliary Basis Set <=

  Basis Set: (THIS_BASIS AUX)
    Blend: DEF2-UNIVERSAL-JKFIT
    Number of shells: 109
    Number of basis functions: 415
    Number of Cartesian functions: 544
    Spherical Harmonics?: true
    Max angular momentum: 5

  Minimum eigenvalue in the overlap matrix is 1.1123428529E-04.
  Reciprocal condition number of the overlap matrix is 1.3299395782E-05.
    Using symmetric orthogonalization.

  ==> Pre-Iterations <==

  SCF Guess: Superposition of Atomic Densities via on-the-fly atomic UHF (no occupation information).

   -------------------------
    Irrep   Nso     Nmo    
   -------------------------
     A        252     252 
   -------------------------
    Total     252     252
   -------------------------

  ==> Iterations <==

                           Total Energy        Delta E     RMS |[F,P]|

   @DF-RHF iter SAD: -2626.92253059916402   -2.62692e+03   0.00000e+00 
   @DF-RHF iter   1: -2628.90870098902997   -1.98617e+00   7.03362e-03 ADIIS/DIIS
   @DF-RHF iter   2: -2629.15433020472938   -2.45629e-01   4.63468e-03 ADIIS/DIIS
   @DF-RHF iter   3: -2629.27840592239181   -1.24076e-01   1.63059e-04 ADIIS/DIIS
   @DF-RHF iter   4: -2629.27940269585952   -9.96773e-04   5.46476e-05 DIIS
   @DF-RHF iter   5: -2629.27954866336222   -1.45968e-04   1.84238e-05 DIIS
   @DF-RHF iter   6: -2629.27956847380847   -1.98104e-05   6.15973e-06 DIIS
   @DF-RHF iter   7: -2629.27957063688109   -2.16307e-06   1.23923e-06 DIIS
   @DF-RHF iter   8: -2629.27957079291082   -1.56030e-07   4.11480e-07 DIIS
   @DF-RHF iter   9: -2629.27957080463557   -1.17248e-08   7.06254e-08 DIIS
   @DF-RHF iter  10: -2629.27957080503620   -4.00632e-10   1.08246e-08 DIIS
   @DF-RHF iter  11: -2629.27957080504439   -8.18545e-12   2.45472e-09 DIIS
  Energy and wave function converged.


  ==> Post-Iterations <==

    Orbital Energies [Eh]
    ---------------------

    Doubly Occupied:                                                      

       1A   -489.983200     2A    -65.123601     3A    -58.478774  
       4A    -58.477959     5A    -58.477959     6A    -15.589797  
       7A     -9.796147     8A     -7.406358     9A     -7.402107  
      10A     -7.402107    11A     -3.149431    12A     -3.146846  
      13A     -3.146846    14A     -3.141436    15A     -3.141436  
      16A     -1.193399    17A     -0.975740    18A     -0.681582  
      19A     -0.681579    20A     -0.576494    21A     -0.431220  
      22A     -0.389491    23A     -0.389491  

    Virtual:                                                              

      24A      0.083751    25A      0.138078    26A      0.138078  
      27A      0.179614    28A      0.233308    29A      0.263201  
      30A      0.263201    31A      0.315473    32A      0.315474  
      33A      0.320965    34A      0.343483    35A      0.447459  
      36A      0.447460    37A      0.479129    38A      0.486131  
      39A      0.486133    40A      0.514794    41A      0.514794  
      42A      0.569955    43A      0.569955    44A      0.582556  
      45A      0.696051    46A      0.803308    47A      0.834373  
      48A      0.837518    49A      0.837519    50A      0.877580  
      51A      0.877582    52A      0.942976    53A      1.029846  
      54A      1.029849    55A      1.060266    56A      1.060266  
      57A      1.086461    58A      1.148578    59A      1.232690  
      60A      1.232690    61A      1.243709    62A      1.248586  
      63A      1.256734    64A      1.256734    65A      1.260575  
      66A      1.302717    67A      1.302718    68A      1.355948  
      69A      1.371529    70A      1.371530    71A      1.377174  
      72A      1.470789    73A      1.576207    74A      1.576209  
      75A      1.740354    76A      1.740355    77A      1.753619  
      78A      1.790775    79A      1.790775    80A      1.801392  
      81A      1.895004    82A      1.895007    83A      2.112125  
      84A      2.175019    85A      2.175019    86A      2.267052  
      87A      2.267053    88A      2.303451    89A      2.331127  
      90A      2.352489    91A      2.432840    92A      2.432841  
      93A      2.504976    94A      2.504978    95A      2.531458  
      96A      2.531465    97A      2.597695    98A      2.597698  
      99A      2.641877   100A      2.665061   101A      2.665061  
     102A      2.744207   103A      2.792385   104A      2.792385  
     105A      2.833212   106A      2.878576   107A      3.002971  
     108A      3.002976   109A      3.026297   110A      3.037213  
     111A      3.037840   112A      3.052728   113A      3.052728  
     114A      3.062734   115A      3.062734   116A      3.100143  
     117A      3.100144   118A      3.108619   119A      3.108698  
     120A      3.141211   121A      3.159359   122A      3.159361  
     123A      3.192989   124A      3.272263   125A      3.317542  
     126A      3.317543   127A      3.458412   128A      3.458418  
     129A      3.515316   130A      3.515317   131A      3.518809  
     132A      3.689743   133A      3.872097   134A      3.932010  
     135A      3.932020   136A      3.962763   137A      4.010545  
     138A      4.010546   139A      4.135601   140A      4.327243  
     141A      4.327251   142A      4.337944   143A      4.403583  
     144A      4.403585   145A      4.565002   146A      4.612628  
     147A      4.612639   148A      4.687495   149A      5.241999  
     150A      5.404525   151A      5.404535   152A      5.489783  
     153A      5.489783   154A      5.613073   155A      5.613074  
     156A      5.650945   157A      6.087666   158A      6.094757  
     159A      6.122592   160A      6.122592   161A      6.224508  
     162A      6.224515   163A      6.282752   164A      6.348657  
     165A      6.348667   166A      6.366062   167A      6.432028  
     168A      6.432034   169A      6.743698   170A      6.825957  
     171A      6.854709   172A      6.854710   173A      6.979053  
     174A      6.979059   175A      7.111879   176A      7.221926  
     177A      7.283493   178A      7.283502   179A      7.414265  
     180A      7.414271   181A      7.515126   182A      7.581579  
     183A      7.581587   184A      7.646470   185A      7.646474  
     186A      7.665383   187A      7.754555   188A      7.944015  
     189A      7.944017   190A      8.009347   191A      8.084498  
     192A      8.084501   193A      8.118894   194A      8.118894  
     195A      8.165285   196A      8.248612   197A      8.270604  
     198A      8.270607   199A      8.389199   200A      8.389200  
     201A      8.424925   202A      8.470673   203A      8.528892  
     204A      8.528902   205A      8.544126   206A      8.611398  
     207A      8.741382   208A      8.764679   209A      8.764695  
     210A      8.841215   211A      8.841222   212A      8.922866  
     213A      9.049889   214A      9.049895   215A      9.103299  
     216A      9.122685   217A      9.122686   218A      9.506301  
     219A      9.506303   220A      9.510092   221A      9.585748  
     222A      9.916715   223A      9.916721   224A     10.027370  
     225A     10.087239   226A     10.087241   227A     10.261698  
     228A     10.498935   229A     10.498937   230A     10.503749  
     231A     10.699483   232A     11.593843   233A     11.667200  
     234A     11.667218   235A     12.094687   236A     12.095015  
     237A     12.095024   238A     12.282713   239A     12.282760  
     240A     12.423435   241A     14.481207   242A     14.481207  
     243A     14.828864   244A     14.828870   245A     14.862843  
     246A     15.691092   247A     30.330806   248A     39.417120  
     249A     96.828552   250A    200.544956   251A    325.344313  
     252A   1828.373868  

    Final Occupation by Irrep:
              A 
    DOCC [    23 ]
    NA   [    23 ]
    NB   [    23 ]

  @DF-RHF Final Energy: -2629.27957080504439

   => Energetics <=

    Nuclear Repulsion Energy =             81.9406768006724064
    One-Electron Energy =               -3824.0744951151368696
    Two-Electron Energy =                1112.8542475094200199
    Total Energy =                      -2629.2795708050443864

Computation Completed


Properties will be evaluated at   0.000000,   0.000000,   0.000000 [a0]

Properties computed using the SCF density matrix


 Multipole Moments:

 ------------------------------------------------------------------------------------
     Multipole            Electronic (a.u.)      Nuclear  (a.u.)        Total (a.u.)
 ------------------------------------------------------------------------------------

 L = 1.  Multiply by 2.5417464519 to convert [e a0] to [Debye]
 Dipole X            :         -0.0001474            0.0001650            0.0000176
 Dipole Y            :         12.3853135          -14.3110091           -1.9256956
 Dipole Z            :          0.0000000            0.0000000            0.0000000
 Magnitude           :                                                    1.9256956

 ------------------------------------------------------------------------------------

*** tstop() called on cmpsrv002 at Thu Sep 19 14:19:31 2024
Module time:
	user time   =      14.26 seconds =       0.24 minutes
	system time =       1.75 seconds =       0.03 minutes
	total time  =        202 seconds =       3.37 minutes
Total time:
	user time   =      14.27 seconds =       0.24 minutes
	system time =       1.75 seconds =       0.03 minutes
	total time  =        202 seconds =       3.37 minutes
   => Libint2 <=

    Primary   basis highest AM E, G, H:  6, 6, 3
    Auxiliary basis highest AM E, G, H:  7, 7, 4
    Onebody   basis highest AM E, G, H:  -, -, -
    Solid Harmonics ordering:            Gaussian

*** tstart() called on cmpsrv002
*** at Thu Sep 19 14:19:31 2024

   => Loading Basis Set <=

    Name: THIS_BASIS
    Role: ORBITAL
    Keyword: BASIS
    atoms 1, 4-6 entry H          line    15 file /home/vance/anaconda3/envs/p4env/share/psi4/basis/def2-qzvp.gbs 
    atoms 2      entry BR         line  2253 file /home/vance/anaconda3/envs/p4env/share/psi4/basis/def2-qzvp.gbs 
    atoms 3      entry N          line   242 file /home/vance/anaconda3/envs/p4env/share/psi4/basis/def2-qzvp.gbs 


         ---------------------------------------------------------
                       SAPT(DFT): delta HF Monomer A               
         ---------------------------------------------------------
                                   SCF
               by Justin Turney, Rob Parrish, Andy Simmonett
                          and Daniel G. A. Smith
                              RHF Reference
                        4 Threads,   7629 MiB Core
         ---------------------------------------------------------

  ==> Geometry <==

    Molecular point group: c1
    Full point group: Cs

    Geometry (in Angstrom), charge = 0, multiplicity = 1:

       Center              X                  Y                   Z               Mass       
    ------------   -----------------  -----------------  -----------------  -----------------
         H            0.000022767418    -0.918024996978     0.000000000000     1.007825032230
         BR          -0.000007232582     0.596195003022     0.000000000000    78.918337600000
      Gh(N)           0.000032767418    -2.646444996978     0.000000000000    14.003074004430
      Gh(H)          -0.474347232582    -2.998914996978     0.821650000000     1.007825032230
      Gh(H)          -0.474347232582    -2.998914996978    -0.821650000000     1.007825032230
      Gh(H)           0.948782767418    -2.998914996978     0.000000000000     1.007825032230

  Running in c1 symmetry.

  Rotational constants: A =      6.19413  B =      0.10839  C =      0.10839 [cm^-1]
  Rotational constants: A = 185695.44926  B =   3249.48133  C =   3249.48095 [MHz]
  Nuclear repulsion =   12.231513498576831

  Charge       = 0
  Multiplicity = 1
  Electrons    = 36
  Nalpha       = 18
  Nbeta        = 18

  ==> Algorithm <==

  SCF Algorithm Type is DF.
  DIIS enabled.
  MOM disabled.
  Fractional occupation disabled.
  Guess Type is SAD.
  Energy threshold   = 1.00e-08
  Density threshold  = 1.00e-08
  Integral threshold = 1.00e-12

  ==> Primary Basis <==

  Basis Set: THIS_BASIS
    Blend: DEF2-QZVP
    Number of shells: 82
    Number of basis functions: 252
    Number of Cartesian functions: 303
    Spherical Harmonics?: true
    Max angular momentum: 4

   => Loading Basis Set <=

    Name: (THIS_BASIS AUX)
    Role: JKFIT
    Keyword: DF_BASIS_SCF
    atoms 1, 4-6 entry H          line    18 file /home/vance/anaconda3/envs/p4env/share/psi4/basis/def2-universal-jkfit.gbs 
    atoms 2      entry BR         line  3124 file /home/vance/anaconda3/envs/p4env/share/psi4/basis/def2-universal-jkfit.gbs 
    atoms 3      entry N          line   258 file /home/vance/anaconda3/envs/p4env/share/psi4/basis/def2-universal-jkfit.gbs 

  ==> Integral Setup <==

  ==> DiskDFJK: Density-Fitted J/K Matrices <==

    J tasked:                  Yes
    K tasked:                  Yes
    wK tasked:                  No
    OpenMP threads:              4
    Integrals threads:           4
    Memory [MiB]:             5722
    Algorithm:                Core
    Integral Cache:           SAVE
    Schwarz Cutoff:          1E-12
    Fitting Condition:       1E-10

   => Auxiliary Basis Set <=

  Basis Set: (THIS_BASIS AUX)
    Blend: DEF2-UNIVERSAL-JKFIT
    Number of shells: 109
    Number of basis functions: 415
    Number of Cartesian functions: 544
    Spherical Harmonics?: true
    Max angular momentum: 5

  Minimum eigenvalue in the overlap matrix is 1.1123428529E-04.
  Reciprocal condition number of the overlap matrix is 1.3299395782E-05.
    Using symmetric orthogonalization.

  ==> Pre-Iterations <==

  SCF Guess: Superposition of Atomic Densities via on-the-fly atomic UHF (no occupation information).

   -------------------------
    Irrep   Nso     Nmo    
   -------------------------
     A        252     252 
   -------------------------
    Total     252     252
   -------------------------

  ==> Iterations <==

                           Total Energy        Delta E     RMS |[F,P]|

   @DF-RHF iter SAD: -2571.10345785471600   -2.57110e+03   0.00000e+00 
   @DF-RHF iter   1: -2572.74132391746434   -1.63787e+00   6.82534e-03 ADIIS/DIIS
   @DF-RHF iter   2: -2572.93145561927531   -1.90132e-01   4.54660e-03 ADIIS/DIIS
   @DF-RHF iter   3: -2573.04564981355134   -1.14194e-01   1.02104e-04 ADIIS/DIIS
   @DF-RHF iter   4: -2573.04614882492115   -4.99011e-04   3.62871e-05 DIIS
   @DF-RHF iter   5: -2573.04623107630232   -8.22514e-05   1.04375e-05 DIIS
   @DF-RHF iter   6: -2573.04624110387022   -1.00276e-05   2.14563e-06 DIIS
   @DF-RHF iter   7: -2573.04624140601800   -3.02148e-07   4.03153e-07 DIIS
   @DF-RHF iter   8: -2573.04624141614977   -1.01318e-08   5.65919e-08 DIIS
   @DF-RHF iter   9: -2573.04624141643490   -2.85127e-10   7.65428e-09 DIIS
  Energy and wave function converged.


  ==> Post-Iterations <==

    Orbital Energies [Eh]
    ---------------------

    Doubly Occupied:                                                      

       1A   -490.040303     2A    -65.179832     3A    -58.535411  
       4A    -58.533954     5A    -58.533954     6A     -9.851723  
       7A     -7.463150     8A     -7.456583     9A     -7.456583  
      10A     -3.207066    11A     -3.203322    12A     -3.203322  
      13A     -3.194719    14A     -3.194719    15A     -1.020406  
      16A     -0.564635    17A     -0.433487    18A     -0.433487  

    Virtual:                                                              

      19A      0.053152    20A      0.124134    21A      0.136705  
      22A      0.136705    23A      0.212796    24A      0.244553  
      25A      0.273361    26A      0.273361    27A      0.300758  
      28A      0.300758    29A      0.326543    30A      0.399405  
      31A      0.450719    32A      0.450719    33A      0.476702  
      34A      0.476702    35A      0.539096    36A      0.539097  
      37A      0.553376    38A      0.652510    39A      0.653000  
      40A      0.653000    41A      0.794619    42A      0.860683  
      43A      0.860684    44A      0.871003    45A      0.940634  
      46A      0.941031    47A      0.941033    48A      0.945104  
      49A      1.060193    50A      1.085415    51A      1.085417  
      52A      1.137147    53A      1.137149    54A      1.199049  
      55A      1.199049    56A      1.199654    57A      1.211260  
      58A      1.212582    59A      1.258951    60A      1.258951  
      61A      1.299657    62A      1.345316    63A      1.345317  
      64A      1.373867    65A      1.399262    66A      1.399263  
      67A      1.473210    68A      1.617527    69A      1.617528  
      70A      1.650343    71A      1.697570    72A      1.697570  
      73A      1.748953    74A      1.781094    75A      1.781094  
      76A      1.981491    77A      2.114707    78A      2.126874  
      79A      2.126877    80A      2.231720    81A      2.231721  
      82A      2.355561    83A      2.385570    84A      2.385572  
      85A      2.465363    86A      2.528545    87A      2.528548  
      88A      2.561486    89A      2.561487    90A      2.605033  
      91A      2.643286    92A      2.643288    93A      2.678462  
      94A      2.721505    95A      2.721507    96A      2.761344  
      97A      2.869935    98A      2.869935    99A      2.926547  
     100A      2.927949   101A      2.927950   102A      2.941614  
     103A      2.941619   104A      2.991488   105A      2.991570  
     106A      3.010765   107A      3.010765   108A      3.015180  
     109A      3.048994   110A      3.048995   111A      3.064080  
     112A      3.064166   113A      3.172970   114A      3.172972  
     115A      3.203239   116A      3.217467   117A      3.288401  
     118A      3.288403   119A      3.399924   120A      3.421615  
     121A      3.436074   122A      3.436077   123A      3.552125  
     124A      3.552126   125A      3.566642   126A      3.730595  
     127A      3.730601   128A      3.827331   129A      3.832831  
     130A      3.832833   131A      3.963617   132A      4.002361  
     133A      4.145313   134A      4.145316   135A      4.335820  
     136A      4.366947   137A      4.366947   138A      4.380068  
     139A      4.541616   140A      4.541623   141A      4.588173  
     142A      4.740058   143A      5.053059   144A      5.053059  
     145A      5.412515   146A      5.440921   147A      5.440922  
     148A      5.571437   149A      5.571437   150A      5.674080  
     151A      5.992398   152A      5.992416   153A      6.051313  
     154A      6.058980   155A      6.335682   156A      6.335687  
     157A      6.465021   158A      6.465026   159A      6.492539  
     160A      6.492547   161A      6.548675   162A      6.580539  
     163A      6.755849   164A      6.755862   165A      7.046864  
     166A      7.046865   167A      7.196276   168A      7.196279  
     169A      7.198402   170A      7.394530   171A      7.467796  
     172A      7.467801   173A      7.501263   174A      7.641389  
     175A      7.716280   176A      7.814728   177A      7.814730  
     178A      7.946837   179A      8.062507   180A      8.062509  
     181A      8.143274   182A      8.212497   183A      8.212499  
     184A      8.246708   185A      8.246712   186A      8.366821  
     187A      8.465787   188A      8.465792   189A      8.587544  
     190A      8.613261   191A      8.613267   192A      8.684729  
     193A      8.766098   194A      8.766099   195A      8.786493  
     196A      8.856909   197A      8.856911   198A      8.864597  
     199A      8.984208   200A      9.002328   201A      9.002333  
     202A      9.160032   203A      9.232623   204A      9.270777  
     205A      9.270785   206A      9.359450   207A      9.359455  
     208A      9.476781   209A      9.547175   210A      9.689156  
     211A      9.746565   212A      9.746572   213A      9.928408  
     214A     10.076852   215A     10.076864   216A     10.133576  
     217A     10.269541   218A     10.269557   219A     10.316115  
     220A     10.709937   221A     10.709950   222A     11.027645  
     223A     11.027654   224A     11.190539   225A     11.808164  
     226A     11.808174   227A     11.885814   228A     12.355037  
     229A     12.355086   230A     12.773242   231A     13.678886  
     232A     13.869502   233A     13.869524   234A     14.188969  
     235A     14.283032   236A     14.283058   237A     14.430823  
     238A     14.430823   239A     14.574174   240A     14.574199  
     241A     14.630012   242A     14.807301   243A     16.121226  
     244A     18.254920   245A     18.254943   246A     25.542634  
     247A     30.276680   248A     70.313950   249A     96.772965  
     250A    318.693615   251A    325.288044   252A   1828.316926  

    Final Occupation by Irrep:
              A 
    DOCC [    18 ]
    NA   [    18 ]
    NB   [    18 ]

  @DF-RHF Final Energy: -2573.04624141643490

   => Energetics <=

    Nuclear Repulsion Energy =             12.2315134985768310
    One-Electron Energy =               -3607.5422063749083463
    Two-Electron Energy =                1022.2644514598964633
    Total Energy =                      -2573.0462414164348957

Computation Completed


Properties will be evaluated at   0.000000,   0.000000,   0.000000 [a0]

Properties computed using the SCF density matrix


 Multipole Moments:

 ------------------------------------------------------------------------------------
     Multipole            Electronic (a.u.)      Nuclear  (a.u.)        Total (a.u.)
 ------------------------------------------------------------------------------------

 L = 1.  Multiply by 2.5417464519 to convert [e a0] to [Debye]
 Dipole X            :          0.0004434           -0.0004353            0.0000081
 Dipole Y            :        -38.1042198           37.6977687           -0.4064511
 Dipole Z            :         -0.0000000            0.0000000           -0.0000000
 Magnitude           :                                                    0.4064511

 ------------------------------------------------------------------------------------

*** tstop() called on cmpsrv002 at Thu Sep 19 14:21:28 2024
Module time:
	user time   =      12.28 seconds =       0.20 minutes
	system time =       1.18 seconds =       0.02 minutes
	total time  =        117 seconds =       1.95 minutes
Total time:
	user time   =      26.55 seconds =       0.44 minutes
	system time =       2.93 seconds =       0.05 minutes
	total time  =        319 seconds =       5.32 minutes
   => Libint2 <=

    Primary   basis highest AM E, G, H:  6, 6, 3
    Auxiliary basis highest AM E, G, H:  7, 7, 4
    Onebody   basis highest AM E, G, H:  -, -, -
    Solid Harmonics ordering:            Gaussian

*** tstart() called on cmpsrv002
*** at Thu Sep 19 14:21:28 2024

   => Loading Basis Set <=

    Name: THIS_BASIS
    Role: ORBITAL
    Keyword: BASIS
    atoms 1, 4-6 entry H          line    15 file /home/vance/anaconda3/envs/p4env/share/psi4/basis/def2-qzvp.gbs 
    atoms 2      entry BR         line  2253 file /home/vance/anaconda3/envs/p4env/share/psi4/basis/def2-qzvp.gbs 
    atoms 3      entry N          line   242 file /home/vance/anaconda3/envs/p4env/share/psi4/basis/def2-qzvp.gbs 


         ---------------------------------------------------------
                       SAPT(DFT): delta HF Monomer B               
         ---------------------------------------------------------
                                   SCF
               by Justin Turney, Rob Parrish, Andy Simmonett
                          and Daniel G. A. Smith
                              RHF Reference
                        4 Threads,   7629 MiB Core
         ---------------------------------------------------------

  ==> Geometry <==

    Molecular point group: c1
    Full point group: Cs

    Geometry (in Angstrom), charge = 0, multiplicity = 1:

       Center              X                  Y                   Z               Mass       
    ------------   -----------------  -----------------  -----------------  -----------------
      Gh(H)           0.000022767418    -0.918024996978     0.000000000000     1.007825032230
      Gh(BR)         -0.000007232582     0.596195003022     0.000000000000    78.918337600000
         N            0.000032767418    -2.646444996978     0.000000000000    14.003074004430
         H           -0.474347232582    -2.998914996978     0.821650000000     1.007825032230
         H           -0.474347232582    -2.998914996978    -0.821650000000     1.007825032230
         H            0.948782767418    -2.998914996978     0.000000000000     1.007825032230

  Running in c1 symmetry.

  Rotational constants: A =      6.19413  B =      0.10839  C =      0.10839 [cm^-1]
  Rotational constants: A = 185695.44926  B =   3249.48133  C =   3249.48095 [MHz]
  Nuclear repulsion =   11.945783476959878

  Charge       = 0
  Multiplicity = 1
  Electrons    = 10
  Nalpha       = 5
  Nbeta        = 5

  ==> Algorithm <==

  SCF Algorithm Type is DF.
  DIIS enabled.
  MOM disabled.
  Fractional occupation disabled.
  Guess Type is SAD.
  Energy threshold   = 1.00e-08
  Density threshold  = 1.00e-08
  Integral threshold = 1.00e-12

  ==> Primary Basis <==

  Basis Set: THIS_BASIS
    Blend: DEF2-QZVP
    Number of shells: 82
    Number of basis functions: 252
    Number of Cartesian functions: 303
    Spherical Harmonics?: true
    Max angular momentum: 4

   => Loading Basis Set <=

    Name: (THIS_BASIS AUX)
    Role: JKFIT
    Keyword: DF_BASIS_SCF
    atoms 1, 4-6 entry H          line    18 file /home/vance/anaconda3/envs/p4env/share/psi4/basis/def2-universal-jkfit.gbs 
    atoms 2      entry BR         line  3124 file /home/vance/anaconda3/envs/p4env/share/psi4/basis/def2-universal-jkfit.gbs 
    atoms 3      entry N          line   258 file /home/vance/anaconda3/envs/p4env/share/psi4/basis/def2-universal-jkfit.gbs 

  ==> Integral Setup <==

  ==> DiskDFJK: Density-Fitted J/K Matrices <==

    J tasked:                  Yes
    K tasked:                  Yes
    wK tasked:                  No
    OpenMP threads:              4
    Integrals threads:           4
    Memory [MiB]:             5722
    Algorithm:                Core
    Integral Cache:           SAVE
    Schwarz Cutoff:          1E-12
    Fitting Condition:       1E-10

   => Auxiliary Basis Set <=

  Basis Set: (THIS_BASIS AUX)
    Blend: DEF2-UNIVERSAL-JKFIT
    Number of shells: 109
    Number of basis functions: 415
    Number of Cartesian functions: 544
    Spherical Harmonics?: true
    Max angular momentum: 5

  Minimum eigenvalue in the overlap matrix is 1.1123428529E-04.
  Reciprocal condition number of the overlap matrix is 1.3299395782E-05.
    Using symmetric orthogonalization.

  ==> Pre-Iterations <==

  SCF Guess: Superposition of Atomic Densities via on-the-fly atomic UHF (no occupation information).

   -------------------------
    Irrep   Nso     Nmo    
   -------------------------
     A        252     252 
   -------------------------
    Total     252     252
   -------------------------

  ==> Iterations <==

                           Total Energy        Delta E     RMS |[F,P]|

   @DF-RHF iter SAD:   -55.65138389287849   -5.56514e+01   0.00000e+00 
   @DF-RHF iter   1:   -56.13001182064738   -4.78628e-01   1.82278e-03 ADIIS/DIIS
   @DF-RHF iter   2:   -56.19693811805985   -6.69263e-02   1.05120e-03 ADIIS/DIIS
   @DF-RHF iter   3:   -56.22381394978891   -2.68758e-02   9.74527e-05 DIIS
   @DF-RHF iter   4:   -56.22444191909109   -6.27969e-04   1.81006e-05 DIIS
   @DF-RHF iter   5:   -56.22446239596356   -2.04769e-05   3.37280e-06 DIIS
   @DF-RHF iter   6:   -56.22446360264475   -1.20668e-06   8.56827e-07 DIIS
   @DF-RHF iter   7:   -56.22446368505294   -8.24082e-08   1.89682e-07 DIIS
   @DF-RHF iter   8:   -56.22446368937657   -4.32363e-09   3.01653e-08 DIIS
   @DF-RHF iter   9:   -56.22446368948538   -1.08805e-10   8.42539e-09 DIIS
  Energy and wave function converged.


  ==> Post-Iterations <==

    Orbital Energies [Eh]
    ---------------------

    Doubly Occupied:                                                      

       1A    -15.538441     2A     -1.138666     3A     -0.631224  
       4A     -0.631222     5A     -0.424023  

    Virtual:                                                              

       6A      0.099471     7A      0.121413     8A      0.155008  
       9A      0.155008    10A      0.197633    11A      0.197633  
      12A      0.230532    13A      0.322969    14A      0.322969  
      15A      0.325790    16A      0.383019    17A      0.507658  
      18A      0.521757    19A      0.521760    20A      0.541250  
      21A      0.541250    22A      0.558738    23A      0.676701  
      24A      0.679827    25A      0.679827    26A      0.743953  
      27A      0.743953    28A      0.762104    29A      0.762105  
      30A      0.811519    31A      0.853710    32A      0.868217  
      33A      0.901963    34A      0.901964    35A      0.970621  
      36A      0.978005    37A      0.978006    38A      1.061782  
      39A      1.075215    40A      1.075217    41A      1.160281  
      42A      1.160282    43A      1.253870    44A      1.312740  
      45A      1.335641    46A      1.335641    47A      1.406663  
      48A      1.449588    49A      1.449627    50A      1.451234  
      51A      1.451234    52A      1.454086    53A      1.454089  
      54A      1.497100    55A      1.570661    56A      1.760199  
      57A      1.760200    58A      1.863094    59A      1.873180  
      60A      1.873180    61A      1.971110    62A      1.971114  
      63A      2.005366    64A      2.155979    65A      2.288174  
      66A      2.288176    67A      2.342752    68A      2.366048  
      69A      2.366049    70A      2.395632    71A      2.424229  
      72A      2.424230    73A      2.455354    74A      2.470768  
      75A      2.470769    76A      2.500585    77A      2.500585  
      78A      2.510962    79A      2.596930    80A      2.596937  
      81A      2.649843    82A      2.649843    83A      2.719099  
      84A      2.733581    85A      2.733586    86A      2.885718  
      87A      2.902959    88A      2.902959    89A      2.933777  
      90A      2.996502    91A      2.996506    92A      3.061268  
      93A      3.125861    94A      3.125865    95A      3.158865  
      96A      3.193699    97A      3.193701    98A      3.232115  
      99A      3.392632   100A      3.392636   101A      3.426905  
     102A      3.547158   103A      3.587220   104A      3.587488  
     105A      3.590092   106A      3.590092   107A      3.698180  
     108A      3.698182   109A      3.781545   110A      3.802048  
     111A      3.802051   112A      3.929437   113A      3.994162  
     114A      3.994170   115A      4.189657   116A      4.245275  
     117A      4.368722   118A      4.368731   119A      4.492596  
     120A      4.492597   121A      4.510892   122A      4.510948  
     123A      4.523918   124A      4.523918   125A      4.599149  
     126A      4.599150   127A      4.618007   128A      4.634331  
     129A      4.653394   130A      4.653405   131A      4.743612  
     132A      4.792452   133A      4.792454   134A      5.199161  
     135A      5.436654   136A      5.469973   137A      5.469983  
     138A      5.750076   139A      6.176227   140A      6.176228  
     141A      6.269772   142A      6.269779   143A      6.327158  
     144A      6.379025   145A      6.391773   146A      6.393235  
     147A      6.393245   148A      6.421374   149A      6.713309  
     150A      6.713315   151A      6.789511   152A      6.862759  
     153A      6.862759   154A      6.923022   155A      6.959165  
     156A      6.959169   157A      7.019957   158A      7.019958  
     159A      7.177410   160A      7.194034   161A      7.194040  
     162A      7.267096   163A      7.400406   164A      7.400425  
     165A      7.502172   166A      7.621468   167A      7.621474  
     168A      7.682610   169A      7.695227   170A      7.695228  
     171A      7.789334   172A      7.789335   173A      7.888559  
     174A      8.009922   175A      8.009923   176A      8.057071  
     177A      8.151130   178A      8.151134   179A      8.199417  
     180A      8.296030   181A      8.373756   182A      8.373757  
     183A      8.471417   184A      8.518031   185A      8.544457  
     186A      8.544466   187A      8.642178   188A      8.660098  
     189A      8.733133   190A      8.733141   191A      8.839985  
     192A      8.881329   193A      8.881331   194A      8.966030  
     195A      8.966038   196A      9.054361   197A      9.054361  
     198A      9.077181   199A      9.241673   200A      9.241677  
     201A      9.308777   202A      9.536436   203A      9.536439  
     204A      9.664739   205A      9.664742   206A     10.008818  
     207A     10.008825   208A     10.037429   209A     10.054278  
     210A     10.151207   211A     10.151208   212A     10.313419  
     213A     10.443813   214A     10.550216   215A     10.550218  
     216A     10.646384   217A     10.978304   218A     10.978304  
     219A     11.140981   220A     11.566547   221A     11.659038  
     222A     11.717201   223A     11.717219   224A     12.145276  
     225A     12.145286   226A     12.163804   227A     12.336159  
     228A     12.336206   229A     12.471486   230A     13.014888  
     231A     14.877131   232A     14.877136   233A     15.741308  
     234A     28.712681   235A     28.712681   236A     28.970492  
     237A     29.325350   238A     35.266293   239A     35.266293  
     240A     35.449916   241A     35.449916   242A     36.097256  
     243A     39.469597   244A     64.646541   245A    141.566345  
     246A    165.023283   247A    165.023284   248A    165.398294  
     249A    200.596508   250A    325.208407   251A    874.481150  
     252A   3948.619221  

    Final Occupation by Irrep:
              A 
    DOCC [     5 ]
    NA   [     5 ]
    NB   [     5 ]

  @DF-RHF Final Energy:   -56.22446368948538

   => Energetics <=

    Nuclear Repulsion Energy =             11.9457834769598783
    One-Electron Energy =                 -99.6133399509174637
    Two-Electron Energy =                  31.4430927844722135
    Total Energy =                        -56.2244636894853755

Computation Completed


Properties will be evaluated at   0.000000,   0.000000,   0.000000 [a0]

Properties computed using the SCF density matrix


 Multipole Moments:

 ------------------------------------------------------------------------------------
     Multipole            Electronic (a.u.)      Nuclear  (a.u.)        Total (a.u.)
 ------------------------------------------------------------------------------------

 L = 1.  Multiply by 2.5417464519 to convert [e a0] to [Debye]
 Dipole X            :         -0.0006022            0.0006003           -0.0000018
 Dipole Y            :         51.4028347          -52.0087778           -0.6059431
 Dipole Z            :          0.0000000            0.0000000            0.0000000
 Magnitude           :                                                    0.6059431

 ------------------------------------------------------------------------------------

*** tstop() called on cmpsrv002 at Thu Sep 19 14:23:55 2024
Module time:
	user time   =      11.88 seconds =       0.20 minutes
	system time =       0.88 seconds =       0.01 minutes
	total time  =        147 seconds =       2.45 minutes
Total time:
	user time   =      38.43 seconds =       0.64 minutes
	system time =       3.81 seconds =       0.06 minutes
	total time  =        466 seconds =       7.77 minutes

         ---------------------------------------------------------
                        SAPT(DFT): delta HF Segment                

                   by Daniel G. A. Smith and Rob Parrish           
         ---------------------------------------------------------


  ==> Preparing SAPT Data Cache <== 

  ==> DiskDFJK: Density-Fitted J/K Matrices <==

    J tasked:                  Yes
    K tasked:                  Yes
    wK tasked:                  No
    OpenMP threads:              4
    Integrals threads:           4
    Memory [MiB]:             5722
    Algorithm:                Core
    Integral Cache:           SAVE
    Schwarz Cutoff:          1E-12
    Fitting Condition:       1E-10

   => Auxiliary Basis Set <=

  Basis Set: (THIS_BASIS AUX)
    Blend: DEF2-UNIVERSAL-JKFIT
    Number of shells: 109
    Number of basis functions: 415
    Number of Cartesian functions: 544
    Spherical Harmonics?: true
    Max angular momentum: 5


  ==> E10 Electostatics <== 

    Elst10,r                        -34.06050053 [mEh]

  ==> E10 Exchange <== 

    Exch10(S^2)                      46.91748244 [mEh]
    Exch10                           48.75231916 [mEh]

  ==> E20 Induction <== 

   => Uncoupled Induction <= 

    Ind20,u (A<-B)                   -7.68049984 [mEh]
    Ind20,u (A->B)                  -13.90637885 [mEh]
    Ind20,u                         -21.58687868 [mEh]
    Exch-Ind20,u (A<-B)               5.00959691 [mEh]
    Exch-Ind20,u (A->B)               7.68995769 [mEh]
    Exch-Ind20,u                     12.69955460 [mEh]
    Exch-Ind20,u (A<-B) (S^inf)       5.43512619 [mEh]
    Exch-Ind20,u (A->B) (S^inf)       8.44509604 [mEh]
    Exch-Ind20,u (S^inf)             13.88022224 [mEh]

   => Coupled Induction <= 

   ---------------------------------------------------
              SAPT Coupled Induction Solver           
   ---------------------------------------------------
    Maxiter             =          20
    Convergence         =   1.000E-06
   ---------------------------------------------------
     Iter       (A<-B)           (B->A)      Time [s]
   ---------------------------------------------------
    Guess    1.255339e-01     1.392581e-01          0
        1    4.128239e-02     3.775071e-02          0
        2    8.398122e-03     1.120089e-02          0
        3    3.827829e-03     3.264162e-03          0
        4    4.706303e-04     6.778338e-04          0
        5    7.500525e-05     1.103407e-04          0
        6    1.079235e-05     1.630107e-05          0
        7    2.036691e-06     2.701047e-06          0
        8    3.341258e-07*    5.635519e-07*         1
   ---------------------------------------------------

    Ind20,r (A<-B)                   -8.75091367 [mEh]
    Ind20,r (A->B)                  -17.63899186 [mEh]
    Ind20,r                         -26.38990553 [mEh]
    Exch-Ind20,r (A<-B)               5.97429472 [mEh]
    Exch-Ind20,r (A->B)              10.25862004 [mEh]
    Exch-Ind20,r                     16.23291476 [mEh]
    Exch-Ind20,r (A<-B) (S^inf)       6.49268151 [mEh]
    Exch-Ind20,r (A->B) (S^inf)      11.31919392 [mEh]
    Exch-Ind20,r (S^inf)             17.81187544 [mEh]

   Partial SAPT(HF) Results, to compute Delta HF (dHF)
  ---------------------------------------------------------------------------------------------------------
    Electrostatics                  -34.06050053 [mEh]    -21.37328676 [kcal/mol]    -89.42583181 [kJ/mol]
      Elst10,r                      -34.06050053 [mEh]    -21.37328676 [kcal/mol]    -89.42583181 [kJ/mol]

    Exchange                         48.75231916 [mEh]     30.59254214 [kcal/mol]    127.99919631 [kJ/mol]
      Exch10                         48.75231916 [mEh]     30.59254214 [kcal/mol]    127.99919631 [kJ/mol]
      Exch10(S^2)                    46.91748244 [mEh]     29.44116471 [kcal/mol]    123.18183317 [kJ/mol]

    Induction (no dHF)              -10.15699077 [mEh]     -6.37360793 [kcal/mol]    -26.66717559 [kJ/mol]
      Ind20,r                       -26.38990553 [mEh]    -16.55991573 [kcal/mol]    -69.28668743 [kJ/mol]
      Exch-Ind20,r                   16.23291476 [mEh]     10.18630780 [kcal/mol]     42.61951184 [kJ/mol]
      Induction (A<-B) (no dHF)      -2.77661895 [mEh]     -1.74235470 [kcal/mol]     -7.29001205 [kJ/mol]
      Induction (A->B) (no dHF)      -7.38037182 [mEh]     -4.63125324 [kcal/mol]    -19.37716354 [kJ/mol]

    Subtotal SAPT(HF)                 4.53482786 [mEh]      2.84564744 [kcal/mol]     11.90618891 [kJ/mol]
    Total HF                         -8.86569912 [mEh]     -5.56331019 [kcal/mol]    -23.27688984 [kJ/mol]
    Delta HF                        -13.40052698 [mEh]     -8.40895764 [kcal/mol]    -35.18307875 [kJ/mol]
  ---------------------------------------------------------------------------------------------------------
   Partial SAPT(HF) Results, alternate SAPT0-like display
  ---------------------------------------------------------------------------------------------------------
    Induction                       -23.55751775 [mEh]    -14.78256557 [kcal/mol]    -61.85025434 [kJ/mol]
      Ind20,r                       -26.38990553 [mEh]    -16.55991573 [kcal/mol]    -69.28668743 [kJ/mol]
      Exch-Ind20,r                   16.23291476 [mEh]     10.18630780 [kcal/mol]     42.61951184 [kJ/mol]
      delta HF,r (2)                -13.40052698 [mEh]     -8.40895764 [kcal/mol]    -35.18307875 [kJ/mol]
      Induction (A<-B)               -6.43992416 [mEh]     -4.04111342 [kcal/mol]    -16.90801855 [kJ/mol]
      Induction (A->B)              -17.11759359 [mEh]    -10.74145215 [kcal/mol]    -44.94223579 [kJ/mol]
  ---------------------------------------------------------------------------------------------------------
   => Libint2 <=

    Primary   basis highest AM E, G, H:  6, 6, 3
    Auxiliary basis highest AM E, G, H:  7, 7, 4
    Onebody   basis highest AM E, G, H:  -, -, -
    Solid Harmonics ordering:            Gaussian

*** tstart() called on cmpsrv002
*** at Thu Sep 19 14:23:57 2024

   => Loading Basis Set <=

    Name: THIS_BASIS
    Role: ORBITAL
    Keyword: BASIS
    atoms 1, 4-6 entry H          line    15 file /home/vance/anaconda3/envs/p4env/share/psi4/basis/def2-qzvp.gbs 
    atoms 2      entry BR         line  2253 file /home/vance/anaconda3/envs/p4env/share/psi4/basis/def2-qzvp.gbs 
    atoms 3      entry N          line   242 file /home/vance/anaconda3/envs/p4env/share/psi4/basis/def2-qzvp.gbs 


         ---------------------------------------------------------
                          SAPT(DFT): DFT Monomer A                 
         ---------------------------------------------------------
                                   SCF
               by Justin Turney, Rob Parrish, Andy Simmonett
                          and Daniel G. A. Smith
                              RKS Reference
                        4 Threads,   7629 MiB Core
         ---------------------------------------------------------

  ==> Geometry <==

    Molecular point group: c1
    Full point group: Cs

    Geometry (in Angstrom), charge = 0, multiplicity = 1:

       Center              X                  Y                   Z               Mass       
    ------------   -----------------  -----------------  -----------------  -----------------
         H            0.000022767418    -0.918024996978     0.000000000000     1.007825032230
         BR          -0.000007232582     0.596195003022     0.000000000000    78.918337600000
      Gh(N)           0.000032767418    -2.646444996978     0.000000000000    14.003074004430
      Gh(H)          -0.474347232582    -2.998914996978     0.821650000000     1.007825032230
      Gh(H)          -0.474347232582    -2.998914996978    -0.821650000000     1.007825032230
      Gh(H)           0.948782767418    -2.998914996978     0.000000000000     1.007825032230

  Running in c1 symmetry.

  Rotational constants: A =      6.19413  B =      0.10839  C =      0.10839 [cm^-1]
  Rotational constants: A = 185695.44926  B =   3249.48133  C =   3249.48095 [MHz]
  Nuclear repulsion =   12.231513498576831

  Charge       = 0
  Multiplicity = 1
  Electrons    = 36
  Nalpha       = 18
  Nbeta        = 18

  ==> Algorithm <==

  SCF Algorithm Type is DF.
  DIIS enabled.
  MOM disabled.
  Fractional occupation disabled.
  Guess Type is SAD.
  Energy threshold   = 1.00e-08
  Density threshold  = 1.00e-08
  Integral threshold = 1.00e-12

  ==> Primary Basis <==

  Basis Set: THIS_BASIS
    Blend: DEF2-QZVP
    Number of shells: 82
    Number of basis functions: 252
    Number of Cartesian functions: 303
    Spherical Harmonics?: true
    Max angular momentum: 4

  ==> DFT Potential <==

   => LibXC <=

    Version 6.2.2
    S. Lehtola, C. Steigemann, M. J.T. Oliveira, and M. A.L. Marques.,  SoftwareX 7, 15 (2018) (10.1016/j.softx.2017.11.002)

   => Composite Functional: PBE0 <= 

    PBE0 Hyb-GGA Exchange-Correlation Functional

    C. Adamo and V. Barone.,  J. Chem. Phys. 110, 6158 (1999) (10.1063/1.478522)
    M. Ernzerhof and G. E. Scuseria.,  J. Chem. Phys. 110, 5029 (1999) (10.1063/1.478401)

    Deriv               =              1
    GGA                 =           TRUE
    Meta                =          FALSE

    Exchange Hybrid     =           TRUE
    MP2 Hybrid          =          FALSE

   => Exchange Functionals <=

    0.7500   Perdew, Burke & Ernzerhof

   => Exact (HF) Exchange <=

    0.2500               HF 

   => Correlation Functionals <=

    1.0000   Perdew, Burke & Ernzerhof

   => LibXC Density Thresholds  <==

    XC_HYB_GGA_XC_PBEH:  1.00E-15 

   => Asymptotic Correction <=

    X Functional        =    XC_GGA_X_LB
    C Functional        =   XC_LDA_C_VWN
    Bulk Shift          =       0.106591
    GRAC Alpha          =       0.500000
    GRAC Beta           =      40.000000

   => Molecular Quadrature <=

    Radial Scheme          =       TREUTLER
    Pruning Scheme         =           NONE
    Nuclear Scheme         =       TREUTLER

    Blocking Scheme        =         OCTREE
    BS radius alpha        =              1
    Pruning alpha          =              1
    Radial Points          =             75
    Spherical Points       =            302
    Total Points           =         130275
    Total Blocks           =           1044
    Max Points             =            256
    Max Functions          =            239
    Weights Tolerance      =       1.00E-15

   => Loading Basis Set <=

    Name: (THIS_BASIS AUX)
    Role: JKFIT
    Keyword: DF_BASIS_SCF
    atoms 1, 4-6 entry H          line    18 file /home/vance/anaconda3/envs/p4env/share/psi4/basis/def2-universal-jkfit.gbs 
    atoms 2      entry BR         line  3124 file /home/vance/anaconda3/envs/p4env/share/psi4/basis/def2-universal-jkfit.gbs 
    atoms 3      entry N          line   258 file /home/vance/anaconda3/envs/p4env/share/psi4/basis/def2-universal-jkfit.gbs 

  ==> Integral Setup <==

  ==> DiskDFJK: Density-Fitted J/K Matrices <==

    J tasked:                  Yes
    K tasked:                  Yes
    wK tasked:                  No
    OpenMP threads:              4
    Integrals threads:           4
    Memory [MiB]:             4977
    Algorithm:                Core
    Integral Cache:           SAVE
    Schwarz Cutoff:          1E-12
    Fitting Condition:       1E-10

   => Auxiliary Basis Set <=

  Basis Set: (THIS_BASIS AUX)
    Blend: DEF2-UNIVERSAL-JKFIT
    Number of shells: 109
    Number of basis functions: 415
    Number of Cartesian functions: 544
    Spherical Harmonics?: true
    Max angular momentum: 5

  Cached 100.0% of DFT collocation blocks in 0.727 [GiB].

  Minimum eigenvalue in the overlap matrix is 1.1123428529E-04.
  Reciprocal condition number of the overlap matrix is 1.3299395782E-05.
    Using symmetric orthogonalization.

  ==> Pre-Iterations <==

  SCF Guess: Superposition of Atomic Densities via on-the-fly atomic UHF (no occupation information).

   -------------------------
    Irrep   Nso     Nmo    
   -------------------------
     A        252     252 
   -------------------------
    Total     252     252
   -------------------------

  ==> Iterations <==

                           Total Energy        Delta E     RMS |[F,P]|

   @DF-RKS iter SAD: -2572.87175341324246   -2.57287e+03   0.00000e+00 
   @DF-RKS iter   1: -2574.05672609004705   -1.18497e+00   8.57787e-03 ADIIS/DIIS
   @DF-RKS iter   2: -2573.97388234491200    8.28437e-02   9.00196e-03 ADIIS/DIIS
   @DF-RKS iter   3: -2574.50577028458338   -5.31888e-01   2.45264e-04 ADIIS/DIIS
   @DF-RKS iter   4: -2574.50663166145341   -8.61377e-04   2.04617e-04 ADIIS/DIIS
   @DF-RKS iter   5: -2574.50815112856208   -1.51947e-03   1.25740e-05 DIIS
   @DF-RKS iter   6: -2574.50815307583616   -1.94727e-06   2.09769e-06 DIIS
   @DF-RKS iter   7: -2574.50815332745333   -2.51617e-07   8.79824e-08 DIIS
   @DF-RKS iter   8: -2574.50815332018510    7.26823e-09   7.70479e-09 DIIS
  Energy and wave function converged.


  ==> Post-Iterations <==

   Electrons on quadrature grid:
      Ntotal   =   35.9999979893 ; deviation = -2.011e-06 

    Orbital Energies [Eh]
    ---------------------

    Doubly Occupied:                                                      

       1A   -483.380973     2A    -62.767786     3A    -56.542735  
       4A    -56.539131     5A    -56.539131     6A     -8.893447  
       7A     -6.703946     8A     -6.692843     9A     -6.692843  
      10A     -2.789669    11A     -2.786231    12A     -2.786231  
      13A     -2.777146    14A     -2.777146    15A     -0.912026  
      16A     -0.554578    17A     -0.427412    18A     -0.427412  

    Virtual:                                                              

      19A     -0.141765    20A     -0.019712    21A      0.014797  
      22A      0.020956    23A      0.020957    24A      0.079477  
      25A      0.096810    26A      0.096811    27A      0.131848  
      28A      0.131851    29A      0.202460    30A      0.214799  
      31A      0.214800    32A      0.238034    33A      0.252318  
      34A      0.252322    35A      0.337138    36A      0.414351  
      37A      0.414357    38A      0.473435    39A      0.491836  
      40A      0.491838    41A      0.584018    42A      0.649873  
      43A      0.649881    44A      0.708502    45A      0.779258  
      46A      0.797913    47A      0.797917    48A      0.817990  
      49A      0.827022    50A      0.863809    51A      0.863810  
      52A      0.890783    53A      0.891036    54A      0.943196  
      55A      0.943199    56A      0.948585    57A      0.948587  
      58A      0.990111    59A      0.990116    60A      1.009733  
      61A      1.071258    62A      1.159515    63A      1.164518  
      64A      1.164522    65A      1.209922    66A      1.209932  
      67A      1.327761    68A      1.327761    69A      1.328220  
      70A      1.335870    71A      1.335872    72A      1.360348  
      73A      1.446615    74A      1.505945    75A      1.505946  
      76A      1.725033    77A      1.852743    78A      1.852752  
      79A      1.935561    80A      2.007814    81A      2.007815  
      82A      2.099280    83A      2.159305    84A      2.159307  
      85A      2.310328    86A      2.318721    87A      2.318723  
      88A      2.344225    89A      2.382595    90A      2.382595  
      91A      2.433175    92A      2.433179    93A      2.455432  
      94A      2.533217    95A      2.533222    96A      2.550387  
      97A      2.577196    98A      2.577300    99A      2.593728  
     100A      2.593728   101A      2.611492   102A      2.611493  
     103A      2.631621   104A      2.631938   105A      2.667399  
     106A      2.667401   107A      2.714589   108A      2.742078  
     109A      2.742082   110A      2.781887   111A      2.781887  
     112A      2.850467   113A      2.867910   114A      2.867913  
     115A      2.950595   116A      2.971633   117A      2.971635  
     118A      3.048948   119A      3.190786   120A      3.221112  
     121A      3.221113   122A      3.302248   123A      3.330107  
     124A      3.330109   125A      3.374481   126A      3.454481  
     127A      3.487984   128A      3.487986   129A      3.642906  
     130A      3.642908   131A      3.653163   132A      3.763838  
     133A      3.815805   134A      3.815808   135A      3.974340  
     136A      3.974345   137A      4.144373   138A      4.220671  
     139A      4.287426   140A      4.386301   141A      4.386303  
     142A      4.402209   143A      4.834719   144A      4.834719  
     145A      4.911197   146A      4.911199   147A      4.998611  
     148A      4.998612   149A      5.164579   150A      5.260511  
     151A      5.653414   152A      5.661460   153A      5.827614  
     154A      5.827627   155A      5.988006   156A      5.988019  
     157A      6.283488   158A      6.283493   159A      6.304503  
     160A      6.335635   161A      6.335641   162A      6.420573  
     163A      6.567482   164A      6.567489   165A      6.738956  
     166A      6.738964   167A      6.891319   168A      7.052881  
     169A      7.052882   170A      7.083462   171A      7.262140  
     172A      7.276095   173A      7.276100   174A      7.513572  
     175A      7.543298   176A      7.596062   177A      7.596067  
     178A      7.742511   179A      7.742539   180A      7.810502  
     181A      7.829397   182A      7.829641   183A      7.929243  
     184A      8.030423   185A      8.040931   186A      8.040935  
     187A      8.267750   188A      8.299992   189A      8.300001  
     190A      8.456568   191A      8.459421   192A      8.459422  
     193A      8.503434   194A      8.503442   195A      8.635591  
     196A      8.637154   197A      8.637161   198A      8.648866  
     199A      8.849282   200A      8.869782   201A      8.869784  
     202A      9.008403   203A      9.081126   204A      9.101116  
     205A      9.101126   206A      9.113970   207A      9.208598  
     208A      9.208604   209A      9.342119   210A      9.475990  
     211A      9.601081   212A      9.601086   213A      9.728727  
     214A      9.874943   215A      9.921734   216A      9.921744  
     217A     10.117978   218A     10.117995   219A     10.150037  
     220A     10.555591   221A     10.555604   222A     10.869069  
     223A     10.869077   224A     11.033376   225A     11.659283  
     226A     11.659292   227A     11.695754   228A     12.204729  
     229A     12.204778   230A     12.628313   231A     13.507907  
     232A     13.507908   233A     13.530662   234A     13.716796  
     235A     13.716818   236A     13.885081   237A     14.036501  
     238A     14.126287   239A     14.126311   240A     14.419190  
     241A     14.419216   242A     14.465279   243A     15.969578  
     244A     18.101950   245A     18.101978   246A     25.377113  
     247A     29.120446   248A     70.144971   249A     94.834615  
     250A    318.525487   251A    321.757137   252A   1819.301375  

    Final Occupation by Irrep:
              A 
    DOCC [    18 ]
    NA   [    18 ]
    NB   [    18 ]

  @DF-RKS Final Energy: -2574.50815332018510

   => Energetics <=

    Nuclear Repulsion Energy =             12.2315134985768310
    One-Electron Energy =               -3607.2507951878915264
    Two-Electron Energy =                1089.3926993190002577
    DFT Exchange-Correlation Energy =     -68.8815709498708912
    Empirical Dispersion Energy =           0.0000000000000000
    VV10 Nonlocal Energy =                  0.0000000000000000
    Total Energy =                      -2574.5081533201851016

Computation Completed


Properties will be evaluated at   0.000000,   0.000000,   0.000000 [a0]

Properties computed using the SCF density matrix


 Multipole Moments:

 ------------------------------------------------------------------------------------
     Multipole            Electronic (a.u.)      Nuclear  (a.u.)        Total (a.u.)
 ------------------------------------------------------------------------------------

 L = 1.  Multiply by 2.5417464519 to convert [e a0] to [Debye]
 Dipole X            :          0.0004480           -0.0004353            0.0000127
 Dipole Y            :        -38.0744953           37.6977687           -0.3767266
 Dipole Z            :         -0.0000000            0.0000000           -0.0000000
 Magnitude           :                                                    0.3767266

 ------------------------------------------------------------------------------------

*** tstop() called on cmpsrv002 at Thu Sep 19 14:26:16 2024
Module time:
	user time   =      20.55 seconds =       0.34 minutes
	system time =       1.46 seconds =       0.02 minutes
	total time  =        139 seconds =       2.32 minutes
Total time:
	user time   =      66.36 seconds =       1.11 minutes
	system time =       5.34 seconds =       0.09 minutes
	total time  =        607 seconds =      10.12 minutes
   => Libint2 <=

    Primary   basis highest AM E, G, H:  6, 6, 3
    Auxiliary basis highest AM E, G, H:  7, 7, 4
    Onebody   basis highest AM E, G, H:  -, -, -
    Solid Harmonics ordering:            Gaussian

*** tstart() called on cmpsrv002
*** at Thu Sep 19 14:26:16 2024

   => Loading Basis Set <=

    Name: THIS_BASIS
    Role: ORBITAL
    Keyword: BASIS
    atoms 1, 4-6 entry H          line    15 file /home/vance/anaconda3/envs/p4env/share/psi4/basis/def2-qzvp.gbs 
    atoms 2      entry BR         line  2253 file /home/vance/anaconda3/envs/p4env/share/psi4/basis/def2-qzvp.gbs 
    atoms 3      entry N          line   242 file /home/vance/anaconda3/envs/p4env/share/psi4/basis/def2-qzvp.gbs 


         ---------------------------------------------------------
                          SAPT(DFT): DFT Monomer B                 
         ---------------------------------------------------------
                                   SCF
               by Justin Turney, Rob Parrish, Andy Simmonett
                          and Daniel G. A. Smith
                              RKS Reference
                        4 Threads,   7629 MiB Core
         ---------------------------------------------------------

  ==> Geometry <==

    Molecular point group: c1
    Full point group: Cs

    Geometry (in Angstrom), charge = 0, multiplicity = 1:

       Center              X                  Y                   Z               Mass       
    ------------   -----------------  -----------------  -----------------  -----------------
      Gh(H)           0.000022767418    -0.918024996978     0.000000000000     1.007825032230
      Gh(BR)         -0.000007232582     0.596195003022     0.000000000000    78.918337600000
         N            0.000032767418    -2.646444996978     0.000000000000    14.003074004430
         H           -0.474347232582    -2.998914996978     0.821650000000     1.007825032230
         H           -0.474347232582    -2.998914996978    -0.821650000000     1.007825032230
         H            0.948782767418    -2.998914996978     0.000000000000     1.007825032230

  Running in c1 symmetry.

  Rotational constants: A =      6.19413  B =      0.10839  C =      0.10839 [cm^-1]
  Rotational constants: A = 185695.44926  B =   3249.48133  C =   3249.48095 [MHz]
  Nuclear repulsion =   11.945783476959878

  Charge       = 0
  Multiplicity = 1
  Electrons    = 10
  Nalpha       = 5
  Nbeta        = 5

  ==> Algorithm <==

  SCF Algorithm Type is DF.
  DIIS enabled.
  MOM disabled.
  Fractional occupation disabled.
  Guess Type is SAD.
  Energy threshold   = 1.00e-08
  Density threshold  = 1.00e-08
  Integral threshold = 1.00e-12

  ==> Primary Basis <==

  Basis Set: THIS_BASIS
    Blend: DEF2-QZVP
    Number of shells: 82
    Number of basis functions: 252
    Number of Cartesian functions: 303
    Spherical Harmonics?: true
    Max angular momentum: 4

  ==> DFT Potential <==

   => LibXC <=

    Version 6.2.2
    S. Lehtola, C. Steigemann, M. J.T. Oliveira, and M. A.L. Marques.,  SoftwareX 7, 15 (2018) (10.1016/j.softx.2017.11.002)

   => Composite Functional: PBE0 <= 

    PBE0 Hyb-GGA Exchange-Correlation Functional

    C. Adamo and V. Barone.,  J. Chem. Phys. 110, 6158 (1999) (10.1063/1.478522)
    M. Ernzerhof and G. E. Scuseria.,  J. Chem. Phys. 110, 5029 (1999) (10.1063/1.478401)

    Deriv               =              1
    GGA                 =           TRUE
    Meta                =          FALSE

    Exchange Hybrid     =           TRUE
    MP2 Hybrid          =          FALSE

   => Exchange Functionals <=

    0.7500   Perdew, Burke & Ernzerhof

   => Exact (HF) Exchange <=

    0.2500               HF 

   => Correlation Functionals <=

    1.0000   Perdew, Burke & Ernzerhof

   => LibXC Density Thresholds  <==

    XC_HYB_GGA_XC_PBEH:  1.00E-15 

   => Asymptotic Correction <=

    X Functional        =    XC_GGA_X_LB
    C Functional        =   XC_LDA_C_VWN
    Bulk Shift          =       0.113162
    GRAC Alpha          =       0.500000
    GRAC Beta           =      40.000000

   => Molecular Quadrature <=

    Radial Scheme          =       TREUTLER
    Pruning Scheme         =           NONE
    Nuclear Scheme         =       TREUTLER

    Blocking Scheme        =         OCTREE
    BS radius alpha        =              1
    Pruning alpha          =              1
    Radial Points          =             75
    Spherical Points       =            302
    Total Points           =         130275
    Total Blocks           =           1044
    Max Points             =            256
    Max Functions          =            239
    Weights Tolerance      =       1.00E-15

   => Loading Basis Set <=

    Name: (THIS_BASIS AUX)
    Role: JKFIT
    Keyword: DF_BASIS_SCF
    atoms 1, 4-6 entry H          line    18 file /home/vance/anaconda3/envs/p4env/share/psi4/basis/def2-universal-jkfit.gbs 
    atoms 2      entry BR         line  3124 file /home/vance/anaconda3/envs/p4env/share/psi4/basis/def2-universal-jkfit.gbs 
    atoms 3      entry N          line   258 file /home/vance/anaconda3/envs/p4env/share/psi4/basis/def2-universal-jkfit.gbs 

  ==> Integral Setup <==

  ==> DiskDFJK: Density-Fitted J/K Matrices <==

    J tasked:                  Yes
    K tasked:                  Yes
    wK tasked:                  No
    OpenMP threads:              4
    Integrals threads:           4
    Memory [MiB]:             4977
    Algorithm:                Core
    Integral Cache:           SAVE
    Schwarz Cutoff:          1E-12
    Fitting Condition:       1E-10

   => Auxiliary Basis Set <=

  Basis Set: (THIS_BASIS AUX)
    Blend: DEF2-UNIVERSAL-JKFIT
    Number of shells: 109
    Number of basis functions: 415
    Number of Cartesian functions: 544
    Spherical Harmonics?: true
    Max angular momentum: 5

  Cached 100.0% of DFT collocation blocks in 0.727 [GiB].

  Minimum eigenvalue in the overlap matrix is 1.1123428529E-04.
  Reciprocal condition number of the overlap matrix is 1.3299395782E-05.
    Using symmetric orthogonalization.

  ==> Pre-Iterations <==

  SCF Guess: Superposition of Atomic Densities via on-the-fly atomic UHF (no occupation information).

   -------------------------
    Irrep   Nso     Nmo    
   -------------------------
     A        252     252 
   -------------------------
    Total     252     252
   -------------------------

  ==> Iterations <==

                           Total Energy        Delta E     RMS |[F,P]|

   @DF-RKS iter SAD:   -56.06908397448590   -5.60691e+01   0.00000e+00 
   @DF-RKS iter   1:   -56.28003198897714   -2.10948e-01   3.08541e-03 ADIIS/DIIS
   @DF-RKS iter   2:   -56.01945164393632    2.60580e-01   4.04636e-03 ADIIS/DIIS
   @DF-RKS iter   3:   -56.51871569454622   -4.99264e-01   2.16299e-04 ADIIS/DIIS
   @DF-RKS iter   4:   -56.52019971884289   -1.48402e-03   1.87390e-05 DIIS
   @DF-RKS iter   5:   -56.52020683447990   -7.11564e-06   4.98704e-06 DIIS
   @DF-RKS iter   6:   -56.52020688960199   -5.51221e-08   1.96108e-07 DIIS
   @DF-RKS iter   7:   -56.52020684963834    3.99637e-08   2.49952e-08 DIIS
   @DF-RKS iter   8:   -56.52020684015382    9.48452e-09   2.94033e-09 DIIS
  Energy and wave function converged.


  ==> Post-Iterations <==

   Electrons on quadrature grid:
      Ntotal   =    9.9999936386 ; deviation = -6.361e-06 

    Orbital Energies [Eh]
    ---------------------

    Doubly Occupied:                                                      

       1A    -14.471580     2A     -0.987158     3A     -0.590912  
       4A     -0.590910     5A     -0.391597  

    Virtual:                                                              

       6A     -0.084364     7A     -0.015602     8A     -0.015601  
       9A      0.009369    10A      0.072932    11A      0.072937  
      12A      0.107905    13A      0.134579    14A      0.134581  
      15A      0.142950    16A      0.252488    17A      0.264203  
      18A      0.270930    19A      0.270931    20A      0.306190  
      21A      0.306191    22A      0.372803    23A      0.503465  
      24A      0.549040    25A      0.549042    26A      0.598311  
      27A      0.598318    28A      0.614580    29A      0.634811  
      30A      0.634839    31A      0.650687    32A      0.680017  
      33A      0.680025    34A      0.700296    35A      0.755595  
      36A      0.763343    37A      0.763349    38A      0.816089  
      39A      0.816098    40A      0.841291    41A      0.926333  
      42A      0.926347    43A      1.020584    44A      1.049986  
      45A      1.049987    46A      1.064317    47A      1.079879  
      48A      1.157423    49A      1.157426    50A      1.277348  
      51A      1.329979    52A      1.330055    53A      1.341109  
      54A      1.341943    55A      1.394442    56A      1.551396  
      57A      1.551397    58A      1.619644    59A      1.676997  
      60A      1.677005    61A      1.779449    62A      1.779450  
      63A      1.846986    64A      1.949997    65A      1.969224  
      66A      1.969229    67A      2.013192    68A      2.040691  
      69A      2.077685    70A      2.077688    71A      2.148828  
      72A      2.148828    73A      2.223884    74A      2.239498  
      75A      2.239502    76A      2.268790    77A      2.268792  
      78A      2.323792    79A      2.356487    80A      2.356491  
      81A      2.360779    82A      2.360782    83A      2.395119  
      84A      2.436752    85A      2.436752    86A      2.523751  
      87A      2.582141    88A      2.582141    89A      2.619012  
      90A      2.716589    91A      2.731575    92A      2.731576  
      93A      2.798954    94A      2.798962    95A      2.839523  
      96A      2.839530    97A      2.873733    98A      2.892997  
      99A      3.076912   100A      3.076912   101A      3.114674  
     102A      3.184367   103A      3.368986   104A      3.368991  
     105A      3.470378   106A      3.470489   107A      3.479978  
     108A      3.479980   109A      3.514122   110A      3.560469  
     111A      3.560470   112A      3.583275   113A      3.679020  
     114A      3.679024   115A      3.789352   116A      3.945629  
     117A      3.956786   118A      3.956789   119A      4.165063  
     120A      4.191402   121A      4.191416   122A      4.340616  
     123A      4.340616   124A      4.398573   125A      4.398873  
     126A      4.407059   127A      4.407075   128A      4.437832  
     129A      4.494902   130A      4.494903   131A      4.601593  
     132A      4.611430   133A      4.611432   134A      4.813759  
     135A      4.978366   136A      4.978376   137A      5.211303  
     138A      5.574521   139A      5.743652   140A      5.743669  
     141A      5.839264   142A      5.839267   143A      5.892298  
     144A      5.928171   145A      5.928184   146A      5.989817  
     147A      6.158516   148A      6.169755   149A      6.286640  
     150A      6.403398   151A      6.403410   152A      6.455471  
     153A      6.551168   154A      6.551173   155A      6.572725  
     156A      6.572737   157A      6.798460   158A      6.798465  
     159A      6.824182   160A      6.840579   161A      6.868656  
     162A      6.868658   163A      6.981900   164A      6.981906  
     165A      7.157720   166A      7.157733   167A      7.182740  
     168A      7.221321   169A      7.221337   170A      7.249882  
     171A      7.475495   172A      7.519709   173A      7.519717  
     174A      7.563389   175A      7.583151   176A      7.583161  
     177A      7.716219   178A      7.716227   179A      7.808188  
     180A      7.819503   181A      7.909218   182A      7.909230  
     183A      8.013589   184A      8.052131   185A      8.087556  
     186A      8.087566   187A      8.159137   188A      8.180712  
     189A      8.248230   190A      8.248239   191A      8.393460  
     192A      8.393473   193A      8.411935   194A      8.520311  
     195A      8.520324   196A      8.577013   197A      8.735526  
     198A      8.735665   199A      8.830201   200A      8.913826  
     201A      8.913828   202A      9.012677   203A      9.012682  
     204A      9.302337   205A      9.302338   206A      9.477309  
     207A      9.510779   208A      9.510786   209A      9.640571  
     210A      9.640572   211A      9.681656   212A      9.773571  
     213A      9.977461   214A      9.977467   215A     10.087483  
     216A     10.126926   217A     10.853447   218A     10.861730  
     219A     10.861730   220A     11.072151   221A     11.118267  
     222A     11.118286   223A     11.410002   224A     11.571314  
     225A     11.571328   226A     11.606828   227A     11.757411  
     228A     11.757454   229A     11.895558   230A     12.893312  
     231A     14.274978   232A     14.274979   233A     15.102931  
     234A     28.597153   235A     28.597153   236A     28.851942  
     237A     29.208924   238A     35.150779   239A     35.150780  
     240A     35.331738   241A     35.331738   242A     35.977799  
     243A     38.299732   244A     64.529920   245A    141.449760  
     246A    164.907312   247A    164.907312   248A    165.284202  
     249A    197.793787   250A    325.091112   251A    874.360932  
     252A   3948.492527  

    Final Occupation by Irrep:
              A 
    DOCC [     5 ]
    NA   [     5 ]
    NB   [     5 ]

  @DF-RKS Final Energy:   -56.52020684015382

   => Energetics <=

    Nuclear Repulsion Energy =             11.9457834769598783
    One-Electron Energy =                 -99.6868369812858077
    Two-Electron Energy =                  37.2638408274293127
    DFT Exchange-Correlation Energy =      -6.0429941632571955
    Empirical Dispersion Energy =           0.0000000000000000
    VV10 Nonlocal Energy =                  0.0000000000000000
    Total Energy =                        -56.5202068401538185

Computation Completed


Properties will be evaluated at   0.000000,   0.000000,   0.000000 [a0]

Properties computed using the SCF density matrix


 Multipole Moments:

 ------------------------------------------------------------------------------------
     Multipole            Electronic (a.u.)      Nuclear  (a.u.)        Total (a.u.)
 ------------------------------------------------------------------------------------

 L = 1.  Multiply by 2.5417464519 to convert [e a0] to [Debye]
 Dipole X            :         -0.0005949            0.0006003            0.0000054
 Dipole Y            :         51.4312219          -52.0087778           -0.5775559
 Dipole Z            :         -0.0000000            0.0000000           -0.0000000
 Magnitude           :                                                    0.5775559

 ------------------------------------------------------------------------------------

*** tstop() called on cmpsrv002 at Thu Sep 19 14:27:58 2024
Module time:
	user time   =      32.46 seconds =       0.54 minutes
	system time =       1.43 seconds =       0.02 minutes
	total time  =        102 seconds =       1.70 minutes
Total time:
	user time   =      98.83 seconds =       1.65 minutes
	system time =       6.77 seconds =       0.11 minutes
	total time  =        709 seconds =      11.82 minutes

         ---------------------------------------------------------
               SAPT(DFT): Intermolecular Interaction Segment       

                   by Daniel G. A. Smith and Rob Parrish           
         ---------------------------------------------------------

  ==> Algorithm <==

   SAPT DFT Functional             PBE0
   Monomer A GRAC Shift        0.106591
   Monomer B GRAC Shift        0.113162
   Delta HF                        True
   JK Algorithm                      DF

  ==> Preparing SAPT Data Cache <== 

  ==> DiskDFJK: Density-Fitted J/K Matrices <==

    J tasked:                  Yes
    K tasked:                  Yes
    wK tasked:                  No
    OpenMP threads:              4
    Integrals threads:           4
    Memory [MiB]:             4977
    Algorithm:                Core
    Integral Cache:           SAVE
    Schwarz Cutoff:          1E-12
    Fitting Condition:       1E-10

   => Auxiliary Basis Set <=

  Basis Set: (THIS_BASIS AUX)
    Blend: DEF2-UNIVERSAL-JKFIT
    Number of shells: 109
    Number of basis functions: 415
    Number of Cartesian functions: 544
    Spherical Harmonics?: true
    Max angular momentum: 5


  ==> E10 Electostatics <== 

    Elst10,r                        -32.76492861 [mEh]

  ==> E10 Exchange <== 

    Exch10(S^2)                      47.41765862 [mEh]
    Exch10                           49.28512596 [mEh]

  ==> E20 Induction <== 

   => Uncoupled Induction <= 

    Ind20,u (A<-B)                   -9.24964650 [mEh]
    Ind20,u (A->B)                  -18.37264244 [mEh]
    Ind20,u                         -27.62228893 [mEh]
    Exch-Ind20,u (A<-B)               5.88265770 [mEh]
    Exch-Ind20,u (A->B)              10.86410200 [mEh]
    Exch-Ind20,u                     16.74675970 [mEh]
    Exch-Ind20,u (A<-B) (S^inf)       6.38978433 [mEh]
    Exch-Ind20,u (A->B) (S^inf)      11.92870767 [mEh]
    Exch-Ind20,u (S^inf)             18.31849200 [mEh]

   => Coupled Induction <= 

   ---------------------------------------------------
              SAPT Coupled Induction Solver           
   ---------------------------------------------------
    Maxiter             =          20
    Convergence         =   1.000E-06
   ---------------------------------------------------
     Iter       (A<-B)           (B->A)      Time [s]
   ---------------------------------------------------
    Guess    1.931331e-01     1.100580e-01          5
        1    3.458203e-02     4.018713e-02         11
        2    1.684342e-02     1.451171e-02         17
        3    2.914744e-03     1.277035e-03         24
        4    1.854877e-04     1.049334e-04         28
        5    4.573770e-05     6.585626e-06         31
        6    3.205118e-06     6.424326e-07*        33
        7    3.370198e-07*    6.424326e-07*        34
   ---------------------------------------------------

    Ind20,r (A<-B)                   -9.10498572 [mEh]
    Ind20,r (A->B)                  -19.60334194 [mEh]
    Ind20,r                         -28.70832766 [mEh]
    Exch-Ind20,r (A<-B)               6.59114887 [mEh]
    Exch-Ind20,r (A->B)              12.05617194 [mEh]
    Exch-Ind20,r                     18.64732082 [mEh]
    Exch-Ind20,r (A<-B) (S^inf)       7.16680458 [mEh]
    Exch-Ind20,r (A->B) (S^inf)      13.25397724 [mEh]
    Exch-Ind20,r (S^inf)             20.42078182 [mEh]
   => Loading Basis Set <=

    Name: (THIS_BASIS AUX)
    Role: RIFIT
    Keyword: DF_BASIS_MP2
    atoms 1, 4-6 entry H          line    23 file /home/vance/anaconda3/envs/p4env/share/psi4/basis/def2-qzvp-ri.gbs 
    atoms 2      entry BR         line  2543 file /home/vance/anaconda3/envs/p4env/share/psi4/basis/def2-qzvp-ri.gbs 
    atoms 3      entry N          line   337 file /home/vance/anaconda3/envs/p4env/share/psi4/basis/def2-qzvp-ri.gbs 



  ==> E20 Dispersion (CHF FDDS) <== 

   Legendre Points:          10
   Lambda Shift:          0.300
   Fxc Kernal:             ALDA
   (P|Fxc|Q) Thresh:  1.000e-06
  DFHelper Memory: AOs need 0.448 GiB; user supplied 5.960 GiB. 
  Using in-core AOs.

  ==> DFHelper <==
    NBF:                             252
    NAux:                            961
    Schwarz Cutoff:                1E-12
    Mask sparsity (%):                 7
    DFH Avail. Memory [GiB]:       5.960
    OpenMP threads:                    4
    Algorithm:                    DIRECT
    AO Core:                        True
    MO Core:                       False
    Hold Metric:                   False
    Metric Power:                  0.000
    Fitting Condition:             1E-12
    Q Shell Max:                      13


  DFHelper Memory: AOs need 0.482 GiB; user supplied 5.960 GiB. 
  Using in-core AOs.


   => Time Integration <= 

       Omega       Weight       Disp20,u         Disp20   time [s]
   2.269e+01    6.667e-02      2.490e-04      2.339e-04          4
   4.147e+00    1.495e-01      4.386e-03      3.955e-03          7
   1.572e+00    2.191e-01      1.328e-02      1.105e-02          9
   7.589e-01    2.693e-01      2.227e-02      1.670e-02         11
   4.049e-01    2.955e-01      2.493e-02      1.710e-02         12
   2.223e-01    2.955e-01      2.071e-02      1.362e-02         14
   1.186e-01    2.693e-01      1.438e-02      9.284e-03         16
   5.727e-02    2.191e-01      9.043e-03      5.842e-03         17
   2.170e-02    1.495e-01      5.083e-03      3.276e-03         19
   3.966e-03    6.667e-02      2.030e-03      1.308e-03         20

    Disp20,u                        -18.51974279 [mEh]
    Disp20                          -13.11009591 [mEh]

  ==> E20 Dispersion (MP2) <== 


    Disp20 (MP2)                    -18.49285921 [mEh]
    Exch-Disp20,u                     3.94329569 [mEh]
    Scaling Scheme                    FIXED
    Scaling Factor                    0.770
    Est. Exch-Disp20,r                3.03633768 [mEh]

   SAPT(DFT) Results
  ---------------------------------------------------------------------------------------------------------
    Electrostatics                  -32.76492861 [mEh]    -20.56030311 [kcal/mol]    -86.02430822 [kJ/mol]
      Elst1,r                       -32.76492861 [mEh]    -20.56030311 [kcal/mol]    -86.02430822 [kJ/mol]

    Exchange                         49.28512596 [mEh]     30.92688346 [kcal/mol]    129.39808039 [kJ/mol]
      Exch1                          49.28512596 [mEh]     30.92688346 [kcal/mol]    129.39808039 [kJ/mol]
      Exch1(S^2)                     47.41765862 [mEh]     29.75503001 [kcal/mol]    124.49504555 [kJ/mol]

    Induction                       -23.46153383 [mEh]    -14.72233475 [kcal/mol]    -61.59824857 [kJ/mol]
      Ind2,r                        -28.70832766 [mEh]    -18.01474758 [kcal/mol]    -75.37370388 [kJ/mol]
      Exch-Ind2,r                    18.64732082 [mEh]     11.70137047 [kcal/mol]     48.95853406 [kJ/mol]
      Induction (A<-B)               -2.51383685 [mEh]     -1.57745644 [kcal/mol]     -6.60007774 [kJ/mol]
      Induction (A->B)               -7.54716999 [mEh]     -4.73592067 [kcal/mol]    -19.81509208 [kJ/mol]
      delta HF,r (2)                -13.40052699 [mEh]     -8.40895764 [kcal/mol]    -35.18307875 [kJ/mol]

    Dispersion                      -10.07375823 [mEh]     -6.32137872 [kcal/mol]    -26.44864858 [kJ/mol]
      Disp2,r                       -13.11009591 [mEh]     -8.22670938 [kcal/mol]    -34.42055207 [kJ/mol]
      Disp2,u                       -18.49285921 [mEh]    -11.60444435 [kcal/mol]    -48.55299516 [kJ/mol]
      Est. Exch-Disp2,r               3.03633768 [mEh]      1.90533066 [kcal/mol]      7.97190348 [kJ/mol]
      Exch-Disp2,u                    3.94329569 [mEh]      2.47445540 [kcal/mol]     10.35312141 [kJ/mol]

    Total SAPT(DFT)                 -17.01509470 [mEh]    -10.67713312 [kcal/mol]    -44.67312498 [kJ/mol]
  ---------------------------------------------------------------------------------------------------------

*** tstop() called on cmpsrv002 at Thu Sep 19 15:22:44 2024
Module time:
	user time   =     362.04 seconds =       6.03 minutes
	system time =      29.53 seconds =       0.49 minutes
	total time  =       3390 seconds =      56.50 minutes
Total time:
	user time   =     427.26 seconds =       7.12 minutes
	system time =      34.81 seconds =       0.58 minutes
	total time  =       4001 seconds =      66.68 minutes

    Psi4 stopped on: Thursday, 19 September 2024 03:22PM
    Psi4 wall time for execution: 1:06:41.38

*** Psi4 exiting successfully. Buy a developer a beer!
