
    -----------------------------------------------------------------------
          Psi4: An Open-Source Ab Initio Electronic Structure Package
                               Psi4 1.9.1 release

                         Git: Rev {} zzzzzzz 


    D. G. A. Smith, L. A. Burns, A. C. Simmonett, R. M. Parrish,
    M. C. Schieber, R. Galvelis, P. Kraus, H. Kruse, R. Di Remigio,
    A. Alenaizan, A. M. James, S. Lehtola, J. P. Misiewicz, M. Scheurer,
    R. A. Shaw, J. B. Schriber, Y. Xie, Z. L. Glick, D. A. Sirianni,
    J. S. O'Brien, J. M. Waldrop, A. Kumar, E. G. Hohenstein,
    B. P. Pritchard, B. R. Brooks, H. F. Schaefer III, A. Yu. Sokolov,
    K. Patkowski, A. E. DePrince III, U. Bozkaya, R. A. King,
    F. A. Evangelista, J. M. Turney, T. D. Crawford, C. D. Sherrill,
    J. Chem. Phys. 152(18) 184108 (2020). https://doi.org/10.1063/5.0006002

                            Additional Code Authors
    E. T. Seidl, C. L. Janssen, E. F. Valeev, M. L. Leininger,
    J. F. Gonthier, R. M. Richard, H. R. McAlexander, M. Saitow, X. Wang,
    P. Verma, M. H. Lechner, A. Jiang, S. Behnle, A. G. Heide,
    M. F. Herbst, and D. L. Poole

             Previous Authors, Complete List of Code Contributors,
                       and Citations for Specific Modules
    https://github.com/psi4/psi4/blob/master/codemeta.json
    https://github.com/psi4/psi4/graphs/contributors
    http://psicode.org/psi4manual/master/introduction.html#citing-psifour

    -----------------------------------------------------------------------


    Psi4 started on: Thursday, 19 September 2024 02:16PM

    Process ID: 605881
    Host:       cmpsrv002
    PSIDATADIR: /home/vance/anaconda3/envs/p4env/share/psi4
    Memory:     500.0 MiB
    Threads:    8
    
  ==> Input File <==

--------------------------------------------------------------------------
#charge=0 charge_a=0 charge_b=0 selection_a=1-2 selection_b=3-6 scaling=0.85 benchmark_Eint=-6.872 benchmark_unit=kcal/mol group=XH-N
set_num_threads(4)
memory 8 GB
basis this_basis {
    assign    def2-qzvp
}

molecule {
     0 1
    --
     0 1
     H       -0.13083        0.13151       -0.43120
     I        0.01507       -0.01526       -2.14801
    --
     0 1
     N       -0.24622        0.24765        0.92821
     H        0.04383       -0.61294        1.37489
     H        0.33778        1.00391        1.26181
     H       -1.20770        0.43998        1.17888
}

set {
    sapt_dft_functional     PBE0
    scf_type                DF
    freeze_core             true
    sapt_dft_grac_shift_a    0.094577
    sapt_dft_grac_shift_b    0.113162
    sapt_dft_do_hybrid      true
    do_ind_exch_sinf        true
    do_disp_exch_sinf       true
}

nrg = energy('sapt(DFT)')
--------------------------------------------------------------------------
  Threads set to 4 by Python driver.

  Memory set to   7.451 GiB by Python driver.

Scratch directory: /scratch2/vance/psi4/

*** tstart() called on cmpsrv002
*** at Thu Sep 19 14:16:09 2024


         ---------------------------------------------------------
                            SAPT(DFT) Procedure                    

                           by Daniel G. A. Smith                   
         ---------------------------------------------------------

Warning! The default value of SAPT_DFT_EXCH_DISP_SCALE_SCHEME has changed from DISP to FIXED. Please be careful comparing results with earlier versions. 

  ==> Algorithm <==

   SAPT DFT Functional             PBE0
   Monomer A GRAC Shift        0.094577
   Monomer B GRAC Shift        0.113162
   Delta HF                        True
   JK Algorithm                      DF

   Required computations:
     HF  (Dimer)
     HF  (Monomer A)
     HF  (Monomer B)
     DFT (Monomer A)
     DFT (Monomer B)

   => Libint2 <=

    Primary   basis highest AM E, G, H:  6, 6, 3
    Auxiliary basis highest AM E, G, H:  7, 7, 4
    Onebody   basis highest AM E, G, H:  -, -, -
    Solid Harmonics ordering:            Gaussian

*** tstart() called on cmpsrv002
*** at Thu Sep 19 14:16:09 2024

   => Loading Basis Set <=

    Name: THIS_BASIS
    Role: ORBITAL
    Keyword: BASIS
    atoms 1, 4-6 entry H          line    15 file /home/vance/anaconda3/envs/p4env/share/psi4/basis/def2-qzvp.gbs 
    atoms 2      entry I          line  3289 (ECP: line  4841) file /home/vance/anaconda3/envs/p4env/share/psi4/basis/def2-qzvp.gbs 
    atoms 3      entry N          line   242 file /home/vance/anaconda3/envs/p4env/share/psi4/basis/def2-qzvp.gbs 

    !!!  WARNING: ECP capability is in beta. Please check occupations closely.  !!!


         ---------------------------------------------------------
                         SAPT(DFT): delta HF Dimer                 
         ---------------------------------------------------------
                                   SCF
               by Justin Turney, Rob Parrish, Andy Simmonett
                          and Daniel G. A. Smith
                              RHF Reference
                        4 Threads,   7629 MiB Core
         ---------------------------------------------------------

  ==> Geometry <==

    Molecular point group: c1
    Full point group: C1

    Geometry (in Angstrom), charge = 0, multiplicity = 1:

       Center              X                  Y                   Z               Mass       
    ------------   -----------------  -----------------  -----------------  -----------------
         H           -0.113582764438     0.114252443555     1.336327653854     1.007825032230
         I            0.032317235562    -0.032517556445    -0.380482346146   126.904471900000
         N           -0.228972764438     0.230392443555     2.695737653854    14.003074004430
         H            0.061077235562    -0.630197556445     3.142417653854     1.007825032230
         H            0.355027235562     0.986652443555     3.029337653854     1.007825032230
         H           -1.190452764438     0.422722443555     2.946407653854     1.007825032230

  Running in c1 symmetry.

  Rotational constants: A =      6.16450  B =      0.10989  C =      0.10989 [cm^-1]
  Rotational constants: A = 184807.19162  B =   3294.40613  C =   3294.40594 [MHz]
  Nuclear repulsion =   64.103206780511428

  Charge       = 0
  Multiplicity = 1
  Electrons    = 36
  Nalpha       = 18
  Nbeta        = 18

  ==> Algorithm <==

  SCF Algorithm Type is DF.
  DIIS enabled.
  MOM disabled.
  Fractional occupation disabled.
  Guess Type is SAD.
  Energy threshold   = 1.00e-08
  Density threshold  = 1.00e-08
  Integral threshold = 1.00e-12

  ==> Primary Basis <==

  Basis Set: THIS_BASIS
    Blend: DEF2-QZVP
    Number of shells: 79
    Number of basis functions: 259
    Number of Cartesian functions: 316
    Spherical Harmonics?: true
    Max angular momentum: 4

  Core potential: THIS_BASIS
    Number of shells: 4
    Number of ECP primitives: 29
    Number of ECP core electrons: 28
    Max angular momentum: 3

   => Loading Basis Set <=

    Name: (THIS_BASIS AUX)
    Role: JKFIT
    Keyword: DF_BASIS_SCF
    atoms 1, 4-6 entry H          line    18 file /home/vance/anaconda3/envs/p4env/share/psi4/basis/def2-universal-jkfit.gbs 
    atoms 2      entry I          line  4980 file /home/vance/anaconda3/envs/p4env/share/psi4/basis/def2-universal-jkfit.gbs 
    atoms 3      entry N          line   258 file /home/vance/anaconda3/envs/p4env/share/psi4/basis/def2-universal-jkfit.gbs 

  ==> Integral Setup <==

  ==> DiskDFJK: Density-Fitted J/K Matrices <==

    J tasked:                  Yes
    K tasked:                  Yes
    wK tasked:                  No
    OpenMP threads:              4
    Integrals threads:           4
    Memory [MiB]:             5722
    Algorithm:                Core
    Integral Cache:           SAVE
    Schwarz Cutoff:          1E-12
    Fitting Condition:       1E-10

   => Auxiliary Basis Set <=

  Basis Set: (THIS_BASIS AUX)
    Blend: DEF2-UNIVERSAL-JKFIT
    Number of shells: 95
    Number of basis functions: 367
    Number of Cartesian functions: 482
    Spherical Harmonics?: true
    Max angular momentum: 5

  Minimum eigenvalue in the overlap matrix is 9.5083033366E-05.
  Reciprocal condition number of the overlap matrix is 1.0627972583E-05.
    Using symmetric orthogonalization.

  ==> Pre-Iterations <==

  SCF Guess: Superposition of Atomic Densities via on-the-fly atomic UHF (no occupation information).

   -------------------------
    Irrep   Nso     Nmo    
   -------------------------
     A        259     259 
   -------------------------
    Total     259     259
   -------------------------

  ==> Iterations <==

                           Total Energy        Delta E     RMS |[F,P]|

   @DF-RHF iter SAD:  -350.40019200238345   -3.50400e+02   0.00000e+00 
   @DF-RHF iter   1:  -352.98196858455549   -2.58178e+00   3.74453e-03 DIIS/ADIIS
   @DF-RHF iter   2:  -353.38829271532205   -4.06324e-01   2.16117e-03 DIIS/ADIIS
   @DF-RHF iter   3:  -353.46122504824189   -7.29323e-02   1.79648e-04 DIIS/ADIIS
   @DF-RHF iter   4:  -353.46293520953930   -1.71016e-03   6.54067e-05 DIIS
   @DF-RHF iter   5:  -353.46316848187041   -2.33272e-04   3.18204e-05 DIIS
   @DF-RHF iter   6:  -353.46320674272249   -3.82609e-05   7.33347e-06 DIIS
   @DF-RHF iter   7:  -353.46321085651596   -4.11379e-06   2.69803e-06 DIIS
   @DF-RHF iter   8:  -353.46321117991312   -3.23397e-07   6.86534e-07 DIIS
   @DF-RHF iter   9:  -353.46321124315631   -6.32432e-08   1.62299e-07 DIIS
   @DF-RHF iter  10:  -353.46321124634625   -3.18994e-09   3.36287e-08 DIIS
   @DF-RHF iter  11:  -353.46321124648244   -1.36197e-10   7.15311e-09 DIIS
  Energy and wave function converged.


  ==> Post-Iterations <==

    Orbital Energies [Eh]
    ---------------------

    Doubly Occupied:                                                      

       1A    -15.633040     2A     -7.670430     3A     -5.520942  
       4A     -5.517631     5A     -5.517631     6A     -2.216538  
       7A     -2.214018     8A     -2.214018     9A     -2.210424  
      10A     -2.210424    11A     -1.243306    12A     -0.850456  
      13A     -0.723931    14A     -0.723930    15A     -0.633270  
      16A     -0.361044    17A     -0.327410    18A     -0.327410  

    Virtual:                                                              

      19A      0.064914    20A      0.124107    21A      0.124109  
      22A      0.169723    23A      0.193550    24A      0.235853  
      25A      0.235857    26A      0.252162    27A      0.252162  
      28A      0.280760    29A      0.322542    30A      0.325488  
      31A      0.325493    32A      0.357800    33A      0.357822  
      34A      0.388142    35A      0.461198    36A      0.461202  
      37A      0.474613    38A      0.525640    39A      0.525649  
      40A      0.605287    41A      0.738267    42A      0.756048  
      43A      0.756051    44A      0.804182    45A      0.804208  
      46A      0.809248    47A      0.841917    48A      0.860992  
      49A      0.862681    50A      0.870638    51A      0.870646  
      52A      0.892773    53A      0.958681    54A      0.958682  
      55A      0.992359    56A      1.001994    57A      1.002000  
      58A      1.025221    59A      1.025225    60A      1.063778  
      61A      1.063782    62A      1.079159    63A      1.079177  
      64A      1.105344    65A      1.119474    66A      1.171109  
      67A      1.171113    68A      1.243362    69A      1.314427  
      70A      1.314502    71A      1.314520    72A      1.341972  
      73A      1.434370    74A      1.506101    75A      1.506125  
      76A      1.619245    77A      1.619246    78A      1.619996  
      79A      1.621688    80A      1.652623    81A      1.652625  
      82A      1.729082    83A      1.860658    84A      1.860679  
      85A      1.920351    86A      2.012001    87A      2.012008  
      88A      2.073784    89A      2.159480    90A      2.160195  
      91A      2.168024    92A      2.168024    93A      2.187573  
      94A      2.187589    95A      2.271949    96A      2.277374  
      97A      2.318418    98A      2.336593    99A      2.336617  
     100A      2.377783   101A      2.377805   102A      2.502710  
     103A      2.502741   104A      2.535147   105A      2.535180  
     106A      2.600302   107A      2.600304   108A      2.646619  
     109A      2.678779   110A      2.678780   111A      2.690188  
     112A      2.827697   113A      2.827756   114A      2.873496  
     115A      2.908692   116A      2.986204   117A      2.986218  
     118A      2.993781   119A      2.993810   120A      3.016911  
     121A      3.111446   122A      3.111461   123A      3.129826  
     124A      3.129845   125A      3.153992   126A      3.222251  
     127A      3.258651   128A      3.258740   129A      3.323808  
     130A      3.348435   131A      3.348512   132A      3.356650  
     133A      3.440675   134A      3.517722   135A      3.517732  
     136A      3.697276   137A      3.787695   138A      3.787711  
     139A      3.799969   140A      3.799972   141A      3.800632  
     142A      3.802109   143A      3.844005   144A      3.889521  
     145A      3.889539   146A      3.981780   147A      4.092919  
     148A      4.196562   149A      4.288148   150A      4.288166  
     151A      4.337834   152A      4.337838   153A      4.578789  
     154A      4.578792   155A      4.607750   156A      5.023966  
     157A      5.415854   158A      5.415903   159A      5.555779  
     160A      6.049046   161A      6.049065   162A      6.070602  
     163A      6.075933   164A      6.193932   165A      6.193937  
     166A      6.241446   167A      6.278653   168A      6.278673  
     169A      6.376287   170A      6.395438   171A      6.395488  
     172A      6.699107   173A      6.736180   174A      6.990042  
     175A      6.990129   176A      7.015662   177A      7.015697  
     178A      7.088681   179A      7.202938   180A      7.383310  
     181A      7.383372   182A      7.386822   183A      7.549389  
     184A      7.549391   185A      7.609800   186A      7.609841  
     187A      7.614145   188A      7.709302   189A      7.709374  
     190A      7.812210   191A      7.971019   192A      7.971039  
     193A      7.981213   194A      8.066015   195A      8.066064  
     196A      8.230169   197A      8.264598   198A      8.264621  
     199A      8.332032   200A      8.332128   201A      8.374408  
     202A      8.451607   203A      8.480474   204A      8.480487  
     205A      8.481975   206A      8.596074   207A      8.622647  
     208A      8.622699   209A      8.654097   210A      8.849607  
     211A      8.849624   212A      8.955030   213A      8.972428  
     214A      8.972436   215A      9.041042   216A      9.117984  
     217A      9.118070   218A      9.262606   219A      9.262624  
     220A      9.451143   221A      9.672389   222A      9.672408  
     223A      9.912627   224A     10.076406   225A     10.076459  
     226A     10.179683   227A     10.186334   228A     10.186432  
     229A     10.224691   230A     10.511024   231A     10.511074  
     232A     10.643891   233A     11.479771   234A     11.648779  
     235A     11.661343   236A     11.661370   237A     12.074691  
     238A     12.074706   239A     12.162273   240A     12.261116  
     241A     12.261129   242A     12.335039   243A     12.335546  
     244A     12.341377   245A     12.341380   246A     12.389250  
     247A     12.471500   248A     12.471506   249A     12.799205  
     250A     14.822247   251A     14.822278   252A     15.012720  
     253A     15.747486   254A     39.459826   255A     40.419104  
     256A     40.419104   257A     40.602873   258A     79.324644  
     259A    200.621632  

    Final Occupation by Irrep:
              A 
    DOCC [    18 ]
    NA   [    18 ]
    NB   [    18 ]

  @DF-RHF Final Energy:  -353.46321124648244

   => Energetics <=

    Nuclear Repulsion Energy =             64.1032067805114281
    One-Electron Energy =                -722.9011211631099059
    Two-Electron Energy =                 305.3347031361160475
    Total Energy =                       -353.4632112464824445

Computation Completed


Properties will be evaluated at   0.000000,   0.000000,   0.000000 [a0]

Properties computed using the SCF density matrix


 Multipole Moments:

 ------------------------------------------------------------------------------------
     Multipole            Electronic (a.u.)      Nuclear  (a.u.)        Total (a.u.)
 ------------------------------------------------------------------------------------

 L = 1.  Multiply by 2.5417464519 to convert [e a0] to [Debye]
 Dipole X            :          2.9508907           -3.1800491           -0.2291584
 Dipole Y            :         -2.9691718            3.1997560            0.2305843
 Dipole Z            :        -34.7420260           37.4403794            2.6983534
 Magnitude           :                                                    2.7178657

 ------------------------------------------------------------------------------------

*** tstop() called on cmpsrv002 at Thu Sep 19 14:19:28 2024
Module time:
	user time   =      14.55 seconds =       0.24 minutes
	system time =       1.74 seconds =       0.03 minutes
	total time  =        199 seconds =       3.32 minutes
Total time:
	user time   =      14.56 seconds =       0.24 minutes
	system time =       1.74 seconds =       0.03 minutes
	total time  =        199 seconds =       3.32 minutes
   => Libint2 <=

    Primary   basis highest AM E, G, H:  6, 6, 3
    Auxiliary basis highest AM E, G, H:  7, 7, 4
    Onebody   basis highest AM E, G, H:  -, -, -
    Solid Harmonics ordering:            Gaussian

*** tstart() called on cmpsrv002
*** at Thu Sep 19 14:19:28 2024

   => Loading Basis Set <=

    Name: THIS_BASIS
    Role: ORBITAL
    Keyword: BASIS
    atoms 1, 4-6 entry H          line    15 file /home/vance/anaconda3/envs/p4env/share/psi4/basis/def2-qzvp.gbs 
    atoms 2      entry I          line  3289 (ECP: line  4841) file /home/vance/anaconda3/envs/p4env/share/psi4/basis/def2-qzvp.gbs 
    atoms 3      entry N          line   242 file /home/vance/anaconda3/envs/p4env/share/psi4/basis/def2-qzvp.gbs 

    !!!  WARNING: ECP capability is in beta. Please check occupations closely.  !!!


         ---------------------------------------------------------
                       SAPT(DFT): delta HF Monomer A               
         ---------------------------------------------------------
                                   SCF
               by Justin Turney, Rob Parrish, Andy Simmonett
                          and Daniel G. A. Smith
                              RHF Reference
                        4 Threads,   7629 MiB Core
         ---------------------------------------------------------

  ==> Geometry <==

    Molecular point group: c1
    Full point group: C1

    Geometry (in Angstrom), charge = 0, multiplicity = 1:

       Center              X                  Y                   Z               Mass       
    ------------   -----------------  -----------------  -----------------  -----------------
         H           -0.113582764438     0.114252443555     1.336327653854     1.007825032230
         I            0.032317235562    -0.032517556445    -0.380482346146   126.904471900000
      Gh(N)          -0.228972764438     0.230392443555     2.695737653854    14.003074004430
      Gh(H)           0.061077235562    -0.630197556445     3.142417653854     1.007825032230
      Gh(H)           0.355027235562     0.986652443555     3.029337653854     1.007825032230
      Gh(H)          -1.190452764438     0.422722443555     2.946407653854     1.007825032230

  Running in c1 symmetry.

  Rotational constants: A =      6.16450  B =      0.10989  C =      0.10989 [cm^-1]
  Rotational constants: A = 184807.19162  B =   3294.40613  C =   3294.40594 [MHz]
  Nuclear repulsion =    7.650438279290174

  Charge       = 0
  Multiplicity = 1
  Electrons    = 26
  Nalpha       = 13
  Nbeta        = 13

  ==> Algorithm <==

  SCF Algorithm Type is DF.
  DIIS enabled.
  MOM disabled.
  Fractional occupation disabled.
  Guess Type is SAD.
  Energy threshold   = 1.00e-08
  Density threshold  = 1.00e-08
  Integral threshold = 1.00e-12

  ==> Primary Basis <==

  Basis Set: THIS_BASIS
    Blend: DEF2-QZVP
    Number of shells: 79
    Number of basis functions: 259
    Number of Cartesian functions: 316
    Spherical Harmonics?: true
    Max angular momentum: 4

  Core potential: THIS_BASIS
    Number of shells: 4
    Number of ECP primitives: 29
    Number of ECP core electrons: 28
    Max angular momentum: 3

   => Loading Basis Set <=

    Name: (THIS_BASIS AUX)
    Role: JKFIT
    Keyword: DF_BASIS_SCF
    atoms 1, 4-6 entry H          line    18 file /home/vance/anaconda3/envs/p4env/share/psi4/basis/def2-universal-jkfit.gbs 
    atoms 2      entry I          line  4980 file /home/vance/anaconda3/envs/p4env/share/psi4/basis/def2-universal-jkfit.gbs 
    atoms 3      entry N          line   258 file /home/vance/anaconda3/envs/p4env/share/psi4/basis/def2-universal-jkfit.gbs 

  ==> Integral Setup <==

  ==> DiskDFJK: Density-Fitted J/K Matrices <==

    J tasked:                  Yes
    K tasked:                  Yes
    wK tasked:                  No
    OpenMP threads:              4
    Integrals threads:           4
    Memory [MiB]:             5722
    Algorithm:                Core
    Integral Cache:           SAVE
    Schwarz Cutoff:          1E-12
    Fitting Condition:       1E-10

   => Auxiliary Basis Set <=

  Basis Set: (THIS_BASIS AUX)
    Blend: DEF2-UNIVERSAL-JKFIT
    Number of shells: 95
    Number of basis functions: 367
    Number of Cartesian functions: 482
    Spherical Harmonics?: true
    Max angular momentum: 5

  Minimum eigenvalue in the overlap matrix is 9.5083033366E-05.
  Reciprocal condition number of the overlap matrix is 1.0627972583E-05.
    Using symmetric orthogonalization.

  ==> Pre-Iterations <==

  SCF Guess: Superposition of Atomic Densities via on-the-fly atomic UHF (no occupation information).

   -------------------------
    Irrep   Nso     Nmo    
   -------------------------
     A        259     259 
   -------------------------
    Total     259     259
   -------------------------

  ==> Iterations <==

                           Total Energy        Delta E     RMS |[F,P]|

   @DF-RHF iter SAD:  -294.22783565040788   -2.94228e+02   0.00000e+00 
   @DF-RHF iter   1:  -296.92354061219476   -2.69570e+00   3.20117e-03 DIIS/ADIIS
   @DF-RHF iter   2:  -297.18824171496675   -2.64701e-01   1.85013e-03 DIIS/ADIIS
   @DF-RHF iter   3:  -297.23768359722959   -4.94419e-02   1.35182e-04 DIIS/ADIIS
   @DF-RHF iter   4:  -297.23807420120272   -3.90604e-04   5.83090e-05 DIIS
   @DF-RHF iter   5:  -297.23813859606082   -6.49797e-05   1.66575e-05 DIIS
   @DF-RHF iter   6:  -297.23814938841087   -1.06299e-05   2.53358e-06 DIIS
   @DF-RHF iter   7:  -297.23815020419659   -8.15786e-07   5.74665e-07 DIIS
   @DF-RHF iter   8:  -297.23815024613612   -4.19395e-08   1.73243e-07 DIIS
   @DF-RHF iter   9:  -297.23815024996333   -4.50899e-09   6.16031e-08 DIIS
   @DF-RHF iter  10:  -297.23815025063527   -6.71946e-10   3.51166e-08 DIIS
   @DF-RHF iter  11:  -297.23815025076192   -9.97602e-11   8.73626e-09 DIIS
  Energy and wave function converged.


  ==> Post-Iterations <==

    Orbital Energies [Eh]
    ---------------------

    Doubly Occupied:                                                      

       1A     -7.750324     2A     -5.604371     3A     -5.595340  
       4A     -5.595340     5A     -2.300373     6A     -2.295664  
       7A     -2.295664     8A     -2.285473     9A     -2.285473  
      10A     -0.903178    11A     -0.514546    12A     -0.386740  
      13A     -0.386740  

    Virtual:                                                              

      14A      0.046973    15A      0.098504    16A      0.135743  
      17A      0.135744    18A      0.173379    19A      0.211994  
      20A      0.217129    21A      0.217130    22A      0.255480  
      23A      0.255484    24A      0.291707    25A      0.291709  
      26A      0.317813    27A      0.339151    28A      0.370281  
      29A      0.370300    30A      0.434564    31A      0.531609  
      32A      0.531625    33A      0.560219    34A      0.628570  
      35A      0.628572    36A      0.719023    37A      0.764600  
      38A      0.764610    39A      0.787987    40A      0.787991  
      41A      0.805009    42A      0.809784    43A      0.820351  
      44A      0.875377    45A      0.912063    46A      0.912071  
      47A      0.916145    48A      0.942236    49A      0.949988  
      50A      0.949989    51A      0.982611    52A      0.982612  
      53A      0.990438    54A      1.009676    55A      1.009680  
      56A      1.095282    57A      1.095347    58A      1.097121  
      59A      1.119382    60A      1.119408    61A      1.130517  
      62A      1.284086    63A      1.284087    64A      1.289992  
      65A      1.350797    66A      1.368415    67A      1.368417  
      68A      1.460476    69A      1.554044    70A      1.554047  
      71A      1.556344    72A      1.560764    73A      1.569191  
      74A      1.569204    75A      1.654059    76A      1.659807  
      77A      1.659811    78A      1.755108    79A      1.958826  
      80A      1.958829    81A      1.969940    82A      2.096387  
      83A      2.097467    84A      2.109927    85A      2.109927  
      86A      2.161539    87A      2.161559    88A      2.194200  
      89A      2.316718    90A      2.317618    91A      2.317625  
      92A      2.409292    93A      2.409327    94A      2.463611  
      95A      2.507646    96A      2.507678    97A      2.532236  
      98A      2.532247    99A      2.634323   100A      2.679500  
     101A      2.681078   102A      2.681087   103A      2.770487  
     104A      2.770493   105A      2.858970   106A      2.862305  
     107A      2.862306   108A      2.915851   109A      2.915855  
     110A      2.938131   111A      2.941702   112A      2.941733  
     113A      3.046702   114A      3.046746   115A      3.083994  
     116A      3.143774   117A      3.181936   118A      3.181995  
     119A      3.192489   120A      3.203108   121A      3.203135  
     122A      3.332428   123A      3.411239   124A      3.412625  
     125A      3.451165   126A      3.451176   127A      3.495263  
     128A      3.495281   129A      3.567905   130A      3.643389  
     131A      3.643415   132A      3.731418   133A      3.732202  
     134A      3.733262   135A      3.733272   136A      3.833473  
     137A      3.847020   138A      3.847071   139A      3.906082  
     140A      3.928923   141A      3.928938   142A      4.189690  
     143A      4.369489   144A      4.403505   145A      4.472311  
     146A      4.499065   147A      4.499142   148A      4.522036  
     149A      4.522124   150A      5.043515   151A      5.043526  
     152A      5.174447   153A      5.580571   154A      5.981304  
     155A      5.981332   156A      6.087434   157A      6.098898  
     158A      6.260283   159A      6.260301   160A      6.477022  
     161A      6.477028   162A      6.545461   163A      6.624370  
     164A      6.624405   165A      6.660271   166A      6.719487  
     167A      6.719514   168A      7.237233   169A      7.237244  
     170A      7.276870   171A      7.290517   172A      7.290634  
     173A      7.380230   174A      7.413689   175A      7.662907  
     176A      7.769134   177A      7.769144   178A      7.854233  
     179A      7.896486   180A      7.896497   181A      8.052632  
     182A      8.089619   183A      8.089622   184A      8.139596  
     185A      8.284419   186A      8.284447   187A      8.406151  
     188A      8.414318   189A      8.414413   190A      8.655771  
     191A      8.655823   192A      8.701227   193A      8.701285  
     194A      8.786904   195A      8.804911   196A      8.829053  
     197A      8.829073   198A      8.933867   199A      8.933944  
     200A      8.970963   201A      8.983665   202A      9.095107  
     203A      9.095109   204A      9.119206   205A      9.302374  
     206A      9.353015   207A      9.353023   208A      9.435445  
     209A      9.504589   210A      9.554242   211A      9.554278  
     212A      9.856985   213A      9.915215   214A      9.915284  
     215A      9.991981   216A     10.163003   217A     10.163021  
     218A     10.261617   219A     10.446370   220A     10.446384  
     221A     10.998576   222A     10.998657   223A     11.101695  
     224A     11.101741   225A     11.194264   226A     11.291573  
     227A     11.838696   228A     11.838738   229A     12.121066  
     230A     12.260012   231A     12.260013   232A     12.260836  
     233A     12.261264   234A     12.358132   235A     12.358146  
     236A     12.413292   237A     12.413301   238A     12.653301  
     239A     12.977551   240A     13.679129   241A     13.876871  
     242A     13.876879   243A     14.187947   244A     14.307838  
     245A     14.307851   246A     14.601646   247A     14.601666  
     248A     14.902486   249A     14.934158   250A     16.323953  
     251A     18.308583   252A     18.308641   253A     25.617654  
     254A     40.340017   255A     40.340017   256A     40.516887  
     257A     70.387786   258A     79.245770   259A    318.814603  

    Final Occupation by Irrep:
              A 
    DOCC [    13 ]
    NA   [    13 ]
    NB   [    13 ]

  @DF-RHF Final Energy:  -297.23815025076192

   => Energetics <=

    Nuclear Repulsion Energy =              7.6504382792901735
    One-Electron Energy =                -533.3787228176546478
    Two-Electron Energy =                 228.4901342876026149
    Total Energy =                       -297.2381502507619189

Computation Completed


Properties will be evaluated at   0.000000,   0.000000,   0.000000 [a0]

Properties computed using the SCF density matrix


 Multipole Moments:

 ------------------------------------------------------------------------------------
     Multipole            Electronic (a.u.)      Nuclear  (a.u.)        Total (a.u.)
 ------------------------------------------------------------------------------------

 L = 1.  Multiply by 2.5417464519 to convert [e a0] to [Debye]
 Dipole X            :         -1.3297170            1.3121278           -0.0175892
 Dipole Y            :          1.3380204           -1.3203261            0.0176943
 Dipole Z            :         15.6568641          -15.4498925            0.2069716
 Magnitude           :                                                    0.2084700

 ------------------------------------------------------------------------------------

*** tstop() called on cmpsrv002 at Thu Sep 19 14:20:57 2024
Module time:
	user time   =      14.17 seconds =       0.24 minutes
	system time =       1.23 seconds =       0.02 minutes
	total time  =         91 seconds =       1.52 minutes
Total time:
	user time   =      28.59 seconds =       0.48 minutes
	system time =       2.83 seconds =       0.05 minutes
	total time  =        294 seconds =       4.90 minutes
   => Libint2 <=

    Primary   basis highest AM E, G, H:  6, 6, 3
    Auxiliary basis highest AM E, G, H:  7, 7, 4
    Onebody   basis highest AM E, G, H:  -, -, -
    Solid Harmonics ordering:            Gaussian

*** tstart() called on cmpsrv002
*** at Thu Sep 19 14:20:57 2024

   => Loading Basis Set <=

    Name: THIS_BASIS
    Role: ORBITAL
    Keyword: BASIS
    atoms 1, 4-6 entry H          line    15 file /home/vance/anaconda3/envs/p4env/share/psi4/basis/def2-qzvp.gbs 
    atoms 2      entry I          line  3289 (ECP: line  4841) file /home/vance/anaconda3/envs/p4env/share/psi4/basis/def2-qzvp.gbs 
    atoms 3      entry N          line   242 file /home/vance/anaconda3/envs/p4env/share/psi4/basis/def2-qzvp.gbs 

    !!!  WARNING: ECP capability is in beta. Please check occupations closely.  !!!


         ---------------------------------------------------------
                       SAPT(DFT): delta HF Monomer B               
         ---------------------------------------------------------
                                   SCF
               by Justin Turney, Rob Parrish, Andy Simmonett
                          and Daniel G. A. Smith
                              RHF Reference
                        4 Threads,   7629 MiB Core
         ---------------------------------------------------------

  ==> Geometry <==

    Molecular point group: c1
    Full point group: C1

    Geometry (in Angstrom), charge = 0, multiplicity = 1:

       Center              X                  Y                   Z               Mass       
    ------------   -----------------  -----------------  -----------------  -----------------
      Gh(H)          -0.113582764438     0.114252443555     1.336327653854     1.007825032230
      Gh(I)           0.032317235562    -0.032517556445    -0.380482346146   126.904471900000
         N           -0.228972764438     0.230392443555     2.695737653854    14.003074004430
         H            0.061077235562    -0.630197556445     3.142417653854     1.007825032230
         H            0.355027235562     0.986652443555     3.029337653854     1.007825032230
         H           -1.190452764438     0.422722443555     2.946407653854     1.007825032230

  Running in c1 symmetry.

  Rotational constants: A =      6.16450  B =      0.10989  C =      0.10989 [cm^-1]
  Rotational constants: A = 184807.19162  B =   3294.40613  C =   3294.40594 [MHz]
  Nuclear repulsion =   11.944025219208763

  Charge       = 0
  Multiplicity = 1
  Electrons    = 10
  Nalpha       = 5
  Nbeta        = 5

  ==> Algorithm <==

  SCF Algorithm Type is DF.
  DIIS enabled.
  MOM disabled.
  Fractional occupation disabled.
  Guess Type is SAD.
  Energy threshold   = 1.00e-08
  Density threshold  = 1.00e-08
  Integral threshold = 1.00e-12

  ==> Primary Basis <==

  Basis Set: THIS_BASIS
    Blend: DEF2-QZVP
    Number of shells: 79
    Number of basis functions: 259
    Number of Cartesian functions: 316
    Spherical Harmonics?: true
    Max angular momentum: 4

  Core potential: THIS_BASIS
    Number of shells: 4
    Number of ECP primitives: 29
    Number of ECP core electrons: 0
    Max angular momentum: 3

   => Loading Basis Set <=

    Name: (THIS_BASIS AUX)
    Role: JKFIT
    Keyword: DF_BASIS_SCF
    atoms 1, 4-6 entry H          line    18 file /home/vance/anaconda3/envs/p4env/share/psi4/basis/def2-universal-jkfit.gbs 
    atoms 2      entry I          line  4980 file /home/vance/anaconda3/envs/p4env/share/psi4/basis/def2-universal-jkfit.gbs 
    atoms 3      entry N          line   258 file /home/vance/anaconda3/envs/p4env/share/psi4/basis/def2-universal-jkfit.gbs 

  ==> Integral Setup <==

  ==> DiskDFJK: Density-Fitted J/K Matrices <==

    J tasked:                  Yes
    K tasked:                  Yes
    wK tasked:                  No
    OpenMP threads:              4
    Integrals threads:           4
    Memory [MiB]:             5722
    Algorithm:                Core
    Integral Cache:           SAVE
    Schwarz Cutoff:          1E-12
    Fitting Condition:       1E-10

   => Auxiliary Basis Set <=

  Basis Set: (THIS_BASIS AUX)
    Blend: DEF2-UNIVERSAL-JKFIT
    Number of shells: 95
    Number of basis functions: 367
    Number of Cartesian functions: 482
    Spherical Harmonics?: true
    Max angular momentum: 5

  Minimum eigenvalue in the overlap matrix is 9.5083033366E-05.
  Reciprocal condition number of the overlap matrix is 1.0627972583E-05.
    Using symmetric orthogonalization.

  ==> Pre-Iterations <==

  SCF Guess: Superposition of Atomic Densities via on-the-fly atomic UHF (no occupation information).

   -------------------------
    Irrep   Nso     Nmo    
   -------------------------
     A        259     259 
   -------------------------
    Total     259     259
   -------------------------

  ==> Iterations <==

                           Total Energy        Delta E     RMS |[F,P]|

   @DF-RHF iter SAD:   -55.64978293559775   -5.56498e+01   0.00000e+00 
   @DF-RHF iter   1:   -56.12997564764500   -4.80193e-01   1.77369e-03 DIIS/ADIIS
   @DF-RHF iter   2:   -56.19682654888624   -6.68509e-02   1.02271e-03 ADIIS/DIIS
   @DF-RHF iter   3:   -56.22370065984504   -2.68741e-02   9.46926e-05 DIIS
   @DF-RHF iter   4:   -56.22432703814675   -6.26378e-04   1.75553e-05 DIIS
   @DF-RHF iter   5:   -56.22434744433382   -2.04062e-05   3.27508e-06 DIIS
   @DF-RHF iter   6:   -56.22434865843722   -1.21410e-06   8.49202e-07 DIIS
   @DF-RHF iter   7:   -56.22434874435027   -8.59130e-08   1.87966e-07 DIIS
   @DF-RHF iter   8:   -56.22434874886441   -4.51414e-09   2.95974e-08 DIIS
   @DF-RHF iter   9:   -56.22434874897520   -1.10788e-10   8.36883e-09 DIIS
  Energy and wave function converged.


  ==> Post-Iterations <==

    Orbital Energies [Eh]
    ---------------------

    Doubly Occupied:                                                      

       1A    -15.537993     2A     -1.137920     3A     -0.631710  
       4A     -0.631710     5A     -0.422805  

    Virtual:                                                              

       6A      0.092600     7A      0.109985     8A      0.139864  
       9A      0.139865    10A      0.171668    11A      0.171671  
      12A      0.191069    13A      0.311755    14A      0.315330  
      15A      0.315334    16A      0.355655    17A      0.425260  
      18A      0.425262    19A      0.438088    20A      0.452432  
      21A      0.452452    22A      0.503055    23A      0.510953  
      24A      0.510954    25A      0.526436    26A      0.529950  
      27A      0.529953    28A      0.602333    29A      0.602346  
      30A      0.662735    31A      0.768060    32A      0.867396  
      33A      0.882704    34A      0.882737    35A      0.911717  
      36A      0.945887    37A      0.945889    38A      0.960826  
      39A      1.025353    40A      1.025355    41A      1.055199  
      42A      1.056149    43A      1.114218    44A      1.114244  
      45A      1.137850    46A      1.137870    47A      1.152284  
      48A      1.251387    49A      1.265825    50A      1.265839  
      51A      1.327386    52A      1.337156    53A      1.345448  
      54A      1.345451    55A      1.358616    56A      1.371428  
      57A      1.371429    58A      1.406757    59A      1.406765  
      60A      1.416049    61A      1.416058    62A      1.438536  
      63A      1.653456    64A      1.653773    65A      1.653792  
      66A      1.756422    67A      1.960772    68A      1.960798  
      69A      2.106047    70A      2.229252    71A      2.253122  
      72A      2.253144    73A      2.340656    74A      2.342776  
      75A      2.342796    76A      2.394796    77A      2.501076  
      78A      2.501079    79A      2.590864    80A      2.590870  
      81A      2.607746    82A      2.626751    83A      2.626751  
      84A      2.627701    85A      2.628536    86A      2.635039  
      87A      2.635042    88A      2.665425    89A      2.665474  
      90A      2.762855    91A      2.808763    92A      2.808810  
      93A      2.920884    94A      2.946200    95A      2.946222  
      96A      2.969469    97A      2.969497    98A      2.969648  
      99A      3.086935   100A      3.165738   101A      3.165760  
     102A      3.180824   103A      3.183938   104A      3.191066  
     105A      3.191070   106A      3.223737   107A      3.229245  
     108A      3.229258   109A      3.277156   110A      3.277193  
     111A      3.284094   112A      3.310890   113A      3.353496  
     114A      3.353502   115A      3.359703   116A      3.443599  
     117A      3.443608   118A      3.492962   119A      3.567963  
     120A      3.567965   121A      3.622711   122A      3.622747  
     123A      3.647749   124A      3.718716   125A      3.718739  
     126A      3.814374   127A      3.891644   128A      3.982711  
     129A      3.982741   130A      4.192808   131A      4.227992  
     132A      4.347400   133A      4.381790   134A      4.381842  
     135A      4.450488   136A      4.450514   137A      4.668261  
     138A      4.668265   139A      4.755223   140A      5.118997  
     141A      5.508856   142A      5.508905   143A      5.770103  
     144A      6.194601   145A      6.194619   146A      6.280938  
     147A      6.280940   148A      6.318619   149A      6.376417  
     150A      6.383068   151A      6.383086   152A      6.389391  
     153A      6.584376   154A      6.629692   155A      6.629739  
     156A      6.782779   157A      6.926181   158A      7.117603  
     159A      7.117611   160A      7.213933   161A      7.214029  
     162A      7.287483   163A      7.483289   164A      7.483354  
     165A      7.593168   166A      7.633865   167A      7.633873  
     168A      7.683500   169A      7.706126   170A      7.706794  
     171A      7.706832   172A      7.955757   173A      7.955868  
     174A      8.078254   175A      8.121741   176A      8.121787  
     177A      8.259333   178A      8.259349   179A      8.315410  
     180A      8.323771   181A      8.473039   182A      8.473043  
     183A      8.489488   184A      8.539687   185A      8.596395  
     186A      8.596437   187A      8.685854   188A      8.740777  
     189A      8.864528   190A      8.864584   191A      8.897963  
     192A      8.986591   193A      8.986603   194A      9.026043  
     195A      9.026056   196A      9.141916   197A      9.172733  
     198A      9.172763   199A      9.348433   200A      9.348488  
     201A      9.581689   202A      9.745664   203A      9.745665  
     204A      9.822255   205A      9.822274   206A      9.990255  
     207A     10.067622   208A     10.196085   209A     10.196154  
     210A     10.211329   211A     10.319783   212A     10.353136  
     213A     10.353248   214A     10.532189   215A     10.598588  
     216A     10.599962   217A     10.610038   218A     10.610039  
     219A     10.633362   220A     10.633422   221A     10.818796  
     222A     10.829628   223A     10.829639   224A     11.249279  
     225A     11.641457   226A     11.754286   227A     11.754315  
     228A     12.087339   229A     12.167629   230A     12.167643  
     231A     12.360469   232A     12.360483   233A     12.476579  
     234A     12.578428   235A     13.863677   236A     13.863678  
     237A     14.698642   238A     14.698645   239A     14.741546  
     240A     14.778272   241A     14.778283   242A     14.930141  
     243A     14.930167   244A     15.427106   245A     15.863433  
     246A     32.657402   247A     32.657641   248A     32.661344  
     249A     32.661344   250A     32.733758   251A     32.733760  
     252A     32.897649   253A     36.510539   254A     39.564623  
     255A     91.303320   256A     91.303320   257A     91.400499  
     258A    168.340936   259A    200.716720  

    Final Occupation by Irrep:
              A 
    DOCC [     5 ]
    NA   [     5 ]
    NB   [     5 ]

  @DF-RHF Final Energy:   -56.22434874897520

   => Energetics <=

    Nuclear Repulsion Energy =             11.9440252192087630
    One-Electron Energy =                 -99.6124680715254698
    Two-Electron Energy =                  31.4440941033415058
    Total Energy =                        -56.2243487489751956

Computation Completed


Properties will be evaluated at   0.000000,   0.000000,   0.000000 [a0]

Properties computed using the SCF density matrix


 Multipole Moments:

 ------------------------------------------------------------------------------------
     Multipole            Electronic (a.u.)      Nuclear  (a.u.)        Total (a.u.)
 ------------------------------------------------------------------------------------

 L = 1.  Multiply by 2.5417464519 to convert [e a0] to [Debye]
 Dipole X            :          4.4422636           -4.4921769           -0.0499133
 Dipole Y            :         -4.4698443            4.5200821            0.0502378
 Dipole Z            :        -52.3017047           52.8902719            0.5885671
 Magnitude           :                                                    0.5928123

 ------------------------------------------------------------------------------------

*** tstop() called on cmpsrv002 at Thu Sep 19 14:23:34 2024
Module time:
	user time   =      12.01 seconds =       0.20 minutes
	system time =       0.79 seconds =       0.01 minutes
	total time  =        157 seconds =       2.62 minutes
Total time:
	user time   =      40.61 seconds =       0.68 minutes
	system time =       3.62 seconds =       0.06 minutes
	total time  =        451 seconds =       7.52 minutes

         ---------------------------------------------------------
                        SAPT(DFT): delta HF Segment                

                   by Daniel G. A. Smith and Rob Parrish           
         ---------------------------------------------------------


  ==> Preparing SAPT Data Cache <== 

  ==> DiskDFJK: Density-Fitted J/K Matrices <==

    J tasked:                  Yes
    K tasked:                  Yes
    wK tasked:                  No
    OpenMP threads:              4
    Integrals threads:           4
    Memory [MiB]:             5722
    Algorithm:                Core
    Integral Cache:           SAVE
    Schwarz Cutoff:          1E-12
    Fitting Condition:       1E-10

   => Auxiliary Basis Set <=

  Basis Set: (THIS_BASIS AUX)
    Blend: DEF2-UNIVERSAL-JKFIT
    Number of shells: 95
    Number of basis functions: 367
    Number of Cartesian functions: 482
    Spherical Harmonics?: true
    Max angular momentum: 5


  ==> E10 Electostatics <== 

    Elst10,r                        -75.79694543 [mEh]

  ==> E10 Exchange <== 

    Exch10(S^2)                     136.63440360 [mEh]
    Exch10                          152.71166584 [mEh]

  ==> E20 Induction <== 

   => Uncoupled Induction <= 

    Ind20,u (A<-B)                  -40.60519743 [mEh]
    Ind20,u (A->B)                  -24.90906214 [mEh]
    Ind20,u                         -65.51425957 [mEh]
    Exch-Ind20,u (A<-B)              29.39996109 [mEh]
    Exch-Ind20,u (A->B)               3.35652505 [mEh]
    Exch-Ind20,u                     32.75648614 [mEh]
    Exch-Ind20,u (A<-B) (S^inf)      37.20821519 [mEh]
    Exch-Ind20,u (A->B) (S^inf)       6.67348628 [mEh]
    Exch-Ind20,u (S^inf)             43.88170147 [mEh]

   => Coupled Induction <= 

   ---------------------------------------------------
              SAPT Coupled Induction Solver           
   ---------------------------------------------------
    Maxiter             =          20
    Convergence         =   1.000E-06
   ---------------------------------------------------
     Iter       (A<-B)           (B->A)      Time [s]
   ---------------------------------------------------
    Guess    1.305743e-01     1.793010e-01          0
        1    6.905742e-02     5.251755e-02          0
        2    1.026018e-02     1.456474e-02          0
        3    3.853428e-03     3.910014e-03          0
        4    1.058004e-03     6.994988e-04          0
        5    2.531719e-04     1.355744e-04          0
        6    4.794342e-05     2.005905e-05          1
        7    7.230198e-06     3.166926e-06          1
        8    9.991037e-07*    7.635779e-07*         1
   ---------------------------------------------------

    Ind20,r (A<-B)                  -48.94531641 [mEh]
    Ind20,r (A->B)                  -31.32411063 [mEh]
    Ind20,r                         -80.26942704 [mEh]
    Exch-Ind20,r (A<-B)              36.74187609 [mEh]
    Exch-Ind20,r (A->B)               5.80738661 [mEh]
    Exch-Ind20,r                     42.54926270 [mEh]
    Exch-Ind20,r (A<-B) (S^inf)      46.75510813 [mEh]
    Exch-Ind20,r (A->B) (S^inf)      10.82401842 [mEh]
    Exch-Ind20,r (S^inf)             57.57912655 [mEh]

   Partial SAPT(HF) Results, to compute Delta HF (dHF)
  ---------------------------------------------------------------------------------------------------------
    Electrostatics                  -75.79694543 [mEh]    -47.56330134 [kcal/mol]   -199.00485280 [kJ/mol]
      Elst10,r                      -75.79694543 [mEh]    -47.56330134 [kcal/mol]   -199.00485280 [kJ/mol]

    Exchange                        152.71166584 [mEh]     95.82801707 [kcal/mol]    400.94442341 [kJ/mol]
      Exch10                        152.71166584 [mEh]     95.82801707 [kcal/mol]    400.94442341 [kJ/mol]
      Exch10(S^2)                   136.63440360 [mEh]     85.73938270 [kcal/mol]    358.73357722 [kJ/mol]

    Induction (no dHF)              -37.72016433 [mEh]    -23.66976047 [kcal/mol]    -99.03427781 [kJ/mol]
      Ind20,r                       -80.26942704 [mEh]    -50.36982592 [kcal/mol]   -210.74735165 [kJ/mol]
      Exch-Ind20,r                   42.54926270 [mEh]     26.70006545 [kcal/mol]    111.71307384 [kJ/mol]
      Induction (A<-B) (no dHF)     -12.20344032 [mEh]     -7.65777441 [kcal/mol]    -32.04012815 [kJ/mol]
      Induction (A->B) (no dHF)     -25.51672401 [mEh]    -16.01198606 [kcal/mol]    -66.99414966 [kJ/mol]

    Subtotal SAPT(HF)                39.19455608 [mEh]     24.59495526 [kcal/mol]    102.90529280 [kJ/mol]
    Total HF                         -0.71224674 [mEh]     -0.44694158 [kcal/mol]     -1.87000357 [kJ/mol]
    Delta HF                        -39.90680282 [mEh]    -25.04189684 [kcal/mol]   -104.77529637 [kJ/mol]
  ---------------------------------------------------------------------------------------------------------
   Partial SAPT(HF) Results, alternate SAPT0-like display
  ---------------------------------------------------------------------------------------------------------
    Induction                       -77.62696715 [mEh]    -48.71165731 [kcal/mol]   -203.80957418 [kJ/mol]
      Ind20,r                       -80.26942704 [mEh]    -50.36982592 [kcal/mol]   -210.74735165 [kJ/mol]
      Exch-Ind20,r                   42.54926270 [mEh]     26.70006545 [kcal/mol]    111.71307384 [kJ/mol]
      delta HF,r (2)                -39.90680282 [mEh]    -25.04189684 [kcal/mol]   -104.77529637 [kJ/mol]
      Induction (A<-B)              -25.11431426 [mEh]    -15.75947012 [kcal/mol]    -65.93762300 [kJ/mol]
      Induction (A->B)              -52.51265289 [mEh]    -32.95218718 [kcal/mol]   -137.87195118 [kJ/mol]
  ---------------------------------------------------------------------------------------------------------
   => Libint2 <=

    Primary   basis highest AM E, G, H:  6, 6, 3
    Auxiliary basis highest AM E, G, H:  7, 7, 4
    Onebody   basis highest AM E, G, H:  -, -, -
    Solid Harmonics ordering:            Gaussian

*** tstart() called on cmpsrv002
*** at Thu Sep 19 14:23:37 2024

   => Loading Basis Set <=

    Name: THIS_BASIS
    Role: ORBITAL
    Keyword: BASIS
    atoms 1, 4-6 entry H          line    15 file /home/vance/anaconda3/envs/p4env/share/psi4/basis/def2-qzvp.gbs 
    atoms 2      entry I          line  3289 (ECP: line  4841) file /home/vance/anaconda3/envs/p4env/share/psi4/basis/def2-qzvp.gbs 
    atoms 3      entry N          line   242 file /home/vance/anaconda3/envs/p4env/share/psi4/basis/def2-qzvp.gbs 

    !!!  WARNING: ECP capability is in beta. Please check occupations closely.  !!!


         ---------------------------------------------------------
                          SAPT(DFT): DFT Monomer A                 
         ---------------------------------------------------------
                                   SCF
               by Justin Turney, Rob Parrish, Andy Simmonett
                          and Daniel G. A. Smith
                              RKS Reference
                        4 Threads,   7629 MiB Core
         ---------------------------------------------------------

  ==> Geometry <==

    Molecular point group: c1
    Full point group: C1

    Geometry (in Angstrom), charge = 0, multiplicity = 1:

       Center              X                  Y                   Z               Mass       
    ------------   -----------------  -----------------  -----------------  -----------------
         H           -0.113582764438     0.114252443555     1.336327653854     1.007825032230
         I            0.032317235562    -0.032517556445    -0.380482346146   126.904471900000
      Gh(N)          -0.228972764438     0.230392443555     2.695737653854    14.003074004430
      Gh(H)           0.061077235562    -0.630197556445     3.142417653854     1.007825032230
      Gh(H)           0.355027235562     0.986652443555     3.029337653854     1.007825032230
      Gh(H)          -1.190452764438     0.422722443555     2.946407653854     1.007825032230

  Running in c1 symmetry.

  Rotational constants: A =      6.16450  B =      0.10989  C =      0.10989 [cm^-1]
  Rotational constants: A = 184807.19162  B =   3294.40613  C =   3294.40594 [MHz]
  Nuclear repulsion =    7.650438279290174

  Charge       = 0
  Multiplicity = 1
  Electrons    = 26
  Nalpha       = 13
  Nbeta        = 13

  ==> Algorithm <==

  SCF Algorithm Type is DF.
  DIIS enabled.
  MOM disabled.
  Fractional occupation disabled.
  Guess Type is SAD.
  Energy threshold   = 1.00e-08
  Density threshold  = 1.00e-08
  Integral threshold = 1.00e-12

  ==> Primary Basis <==

  Basis Set: THIS_BASIS
    Blend: DEF2-QZVP
    Number of shells: 79
    Number of basis functions: 259
    Number of Cartesian functions: 316
    Spherical Harmonics?: true
    Max angular momentum: 4

  Core potential: THIS_BASIS
    Number of shells: 4
    Number of ECP primitives: 29
    Number of ECP core electrons: 28
    Max angular momentum: 3

  ==> DFT Potential <==

   => LibXC <=

    Version 6.2.2
    S. Lehtola, C. Steigemann, M. J.T. Oliveira, and M. A.L. Marques.,  SoftwareX 7, 15 (2018) (10.1016/j.softx.2017.11.002)

   => Composite Functional: PBE0 <= 

    PBE0 Hyb-GGA Exchange-Correlation Functional

    C. Adamo and V. Barone.,  J. Chem. Phys. 110, 6158 (1999) (10.1063/1.478522)
    M. Ernzerhof and G. E. Scuseria.,  J. Chem. Phys. 110, 5029 (1999) (10.1063/1.478401)

    Deriv               =              1
    GGA                 =           TRUE
    Meta                =          FALSE

    Exchange Hybrid     =           TRUE
    MP2 Hybrid          =          FALSE

   => Exchange Functionals <=

    0.7500   Perdew, Burke & Ernzerhof

   => Exact (HF) Exchange <=

    0.2500               HF 

   => Correlation Functionals <=

    1.0000   Perdew, Burke & Ernzerhof

   => LibXC Density Thresholds  <==

    XC_HYB_GGA_XC_PBEH:  1.00E-15 

   => Asymptotic Correction <=

    X Functional        =    XC_GGA_X_LB
    C Functional        =   XC_LDA_C_VWN
    Bulk Shift          =       0.094577
    GRAC Alpha          =       0.500000
    GRAC Beta           =      40.000000

   => Molecular Quadrature <=

    Radial Scheme          =       TREUTLER
    Pruning Scheme         =           NONE
    Nuclear Scheme         =       TREUTLER

    Blocking Scheme        =         OCTREE
    BS radius alpha        =              1
    Pruning alpha          =              1
    Radial Points          =             75
    Spherical Points       =            302
    Total Points           =         130011
    Total Blocks           =           1020
    Max Points             =            256
    Max Functions          =            251
    Weights Tolerance      =       1.00E-15

   => Loading Basis Set <=

    Name: (THIS_BASIS AUX)
    Role: JKFIT
    Keyword: DF_BASIS_SCF
    atoms 1, 4-6 entry H          line    18 file /home/vance/anaconda3/envs/p4env/share/psi4/basis/def2-universal-jkfit.gbs 
    atoms 2      entry I          line  4980 file /home/vance/anaconda3/envs/p4env/share/psi4/basis/def2-universal-jkfit.gbs 
    atoms 3      entry N          line   258 file /home/vance/anaconda3/envs/p4env/share/psi4/basis/def2-universal-jkfit.gbs 

  ==> Integral Setup <==

  ==> DiskDFJK: Density-Fitted J/K Matrices <==

    J tasked:                  Yes
    K tasked:                  Yes
    wK tasked:                  No
    OpenMP threads:              4
    Integrals threads:           4
    Memory [MiB]:             4914
    Algorithm:                Core
    Integral Cache:           SAVE
    Schwarz Cutoff:          1E-12
    Fitting Condition:       1E-10

   => Auxiliary Basis Set <=

  Basis Set: (THIS_BASIS AUX)
    Blend: DEF2-UNIVERSAL-JKFIT
    Number of shells: 95
    Number of basis functions: 367
    Number of Cartesian functions: 482
    Spherical Harmonics?: true
    Max angular momentum: 5

  Cached 100.0% of DFT collocation blocks in 0.789 [GiB].

  Minimum eigenvalue in the overlap matrix is 9.5083033366E-05.
  Reciprocal condition number of the overlap matrix is 1.0627972583E-05.
    Using symmetric orthogonalization.

  ==> Pre-Iterations <==

  SCF Guess: Superposition of Atomic Densities via on-the-fly atomic UHF (no occupation information).

   -------------------------
    Irrep   Nso     Nmo    
   -------------------------
     A        259     259 
   -------------------------
    Total     259     259
   -------------------------

  ==> Iterations <==

                           Total Energy        Delta E     RMS |[F,P]|

   @DF-RKS iter SAD:  -295.77020257357691   -2.95770e+02   0.00000e+00 
   @DF-RKS iter   1:  -297.77085459044258   -2.00065e+00   4.32199e-03 ADIIS/DIIS
   @DF-RKS iter   2:  -297.75879785622050    1.20567e-02   4.75306e-03 ADIIS/DIIS
   @DF-RKS iter   3:  -298.30808398976870   -5.49286e-01   5.28752e-04 ADIIS/DIIS
   @DF-RKS iter   4:  -298.31045526138200   -2.37127e-03   4.79925e-04 ADIIS/DIIS
   @DF-RKS iter   5:  -298.31511398865410   -4.65873e-03   2.70625e-05 DIIS
   @DF-RKS iter   6:  -298.31514365372396   -2.96651e-05   8.92467e-06 DIIS
   @DF-RKS iter   7:  -298.31514718465354   -3.53093e-06   4.13877e-07 DIIS
   @DF-RKS iter   8:  -298.31514712806074    5.65928e-08   6.08867e-08 DIIS
   @DF-RKS iter   9:  -298.31514713294041   -4.87967e-09   2.77020e-08 DIIS
   @DF-RKS iter  10:  -298.31514713256382    3.76588e-10   8.87429e-09 DIIS
  Energy and wave function converged.


  ==> Post-Iterations <==

   Electrons on quadrature grid:
      Ntotal   =   26.0000011945 ; deviation = 1.195e-06 

    Orbital Energies [Eh]
    ---------------------

    Doubly Occupied:                                                      

       1A     -7.006234     2A     -5.021184     3A     -5.009441  
       4A     -5.009441     5A     -2.048216     6A     -2.044180  
       7A     -2.044180     8A     -2.034066     9A     -2.034066  
      10A     -0.817462    11A     -0.505681    12A     -0.385872  
      13A     -0.385872  

    Virtual:                                                              

      14A     -0.150877    15A     -0.037553    16A     -0.005571  
      17A      0.001757    18A      0.001758    19A      0.044284  
      20A      0.044284    21A      0.057185    22A      0.076700  
      23A      0.076703    24A      0.100917    25A      0.100926  
      26A      0.171529    27A      0.179616    28A      0.209624  
      29A      0.209638    30A      0.267539    31A      0.377929  
      32A      0.382590    33A      0.382617    34A      0.433586  
      35A      0.433590    36A      0.505412    37A      0.505415  
      38A      0.515886    39A      0.518440    40A      0.522827  
      41A      0.563236    42A      0.563246    43A      0.608780  
      44A      0.634984    45A      0.685108    46A      0.685109  
      47A      0.699298    48A      0.699298    49A      0.713546  
      50A      0.713556    51A      0.735676    52A      0.776242  
      53A      0.780202    54A      0.780207    55A      0.813264  
      56A      0.852292    57A      0.891318    58A      0.891368  
      59A      0.904577    60A      0.964705    61A      0.964712  
      62A      1.085080    63A      1.100093    64A      1.100096  
      65A      1.128208    66A      1.167584    67A      1.168083  
      68A      1.171026    69A      1.171045    70A      1.195577  
      71A      1.195598    72A      1.226004    73A      1.226018  
      74A      1.312507    75A      1.326048    76A      1.451290  
      77A      1.451295    78A      1.517420    79A      1.627183  
      80A      1.627186    81A      1.733925    82A      1.734256  
      83A      1.736991    84A      1.744769    85A      1.744769  
      86A      1.919913    87A      1.919924    88A      1.977671  
      89A      2.003711    90A      2.059825    91A      2.059848  
      92A      2.173162    93A      2.173174    94A      2.255924  
      95A      2.255942    96A      2.327101    97A      2.370646  
      98A      2.370663    99A      2.385662   100A      2.410252  
     101A      2.410254   102A      2.486646   103A      2.486653  
     104A      2.531789   105A      2.531821   106A      2.533674  
     107A      2.599420   108A      2.676615   109A      2.677820  
     110A      2.677865   111A      2.742703   112A      2.742709  
     113A      2.745387   114A      2.752744   115A      2.752767  
     116A      2.890988   117A      2.893839   118A      2.893888  
     119A      2.978453   120A      2.978542   121A      2.978950  
     122A      3.005810   123A      3.005817   124A      3.069972  
     125A      3.106820   126A      3.172305   127A      3.174403  
     128A      3.175620   129A      3.175624   130A      3.232880  
     131A      3.274630   132A      3.308715   133A      3.308769  
     134A      3.366795   135A      3.366862   136A      3.452745  
     137A      3.583678   138A      3.583691   139A      3.678939  
     140A      3.678947   141A      3.701715   142A      3.927423  
     143A      4.184048   144A      4.194557   145A      4.230263  
     146A      4.232603   147A      4.232645   148A      4.341966  
     149A      4.342009   150A      4.831152   151A      4.875733  
     152A      4.875739   153A      5.339937   154A      5.710488  
     155A      5.728607   156A      5.792362   157A      5.792391  
     158A      5.980361   159A      5.980373   160A      6.320617  
     161A      6.320631   162A      6.355542   163A      6.365569  
     164A      6.365599   165A      6.397565   166A      6.541250  
     167A      6.541262   168A      7.012769   169A      7.012909  
     170A      7.016845   171A      7.067383   172A      7.087842  
     173A      7.087865   174A      7.227981   175A      7.499292  
     176A      7.499333   177A      7.514197   178A      7.647055  
     179A      7.658880   180A      7.658923   181A      7.865611  
     182A      7.865692   183A      7.878958   184A      7.966208  
     185A      7.966301   186A      7.967655   187A      8.187438  
     188A      8.187585   189A      8.188634   190A      8.452230  
     191A      8.452309   192A      8.520520   193A      8.520564  
     194A      8.570734   195A      8.570782   196A      8.613091  
     197A      8.649547   198A      8.679983   199A      8.680002  
     200A      8.690221   201A      8.825951   202A      8.920824  
     203A      8.928642   204A      8.928655   205A      9.106294  
     206A      9.146885   207A      9.146891   208A      9.153790  
     209A      9.347759   210A      9.385303   211A      9.385337  
     212A      9.646471   213A      9.734615   214A      9.734681  
     215A      9.814288   216A      9.977334   217A      9.977350  
     218A     10.072964   219A     10.271570   220A     10.271585  
     221A     10.810657   222A     10.810729   223A     10.912059  
     224A     10.912103   225A     10.982336   226A     11.014347  
     227A     11.331875   228A     11.332291   229A     11.332292  
     230A     11.332372   231A     11.463291   232A     11.463296  
     233A     11.681026   234A     11.681067   235A     11.796816  
     236A     11.922197   237A     12.205571   238A     12.205595  
     239A     12.769808   240A     13.512205   241A     13.702695  
     242A     13.702702   243A     14.011091   244A     14.124713  
     245A     14.124723   246A     14.186006   247A     14.427793  
     248A     14.427813   249A     14.702776   250A     16.136675  
     251A     18.136243   252A     18.136301   253A     25.431051  
     254A     39.531608   255A     39.531608   256A     39.710472  
     257A     70.199061   258A     78.529603   259A    318.626144  

    Final Occupation by Irrep:
              A 
    DOCC [    13 ]
    NA   [    13 ]
    NB   [    13 ]

  @DF-RKS Final Energy:  -298.31514713256382

   => Energetics <=

    Nuclear Repulsion Energy =              7.6504382792901735
    One-Electron Energy =                -533.7190936466796529
    Two-Electron Energy =                 244.9376070577633584
    DFT Exchange-Correlation Energy =     -17.1840988229376634
    Empirical Dispersion Energy =           0.0000000000000000
    VV10 Nonlocal Energy =                  0.0000000000000000
    Total Energy =                       -298.3151471325638227

Computation Completed


Properties will be evaluated at   0.000000,   0.000000,   0.000000 [a0]

Properties computed using the SCF density matrix


 Multipole Moments:

 ------------------------------------------------------------------------------------
     Multipole            Electronic (a.u.)      Nuclear  (a.u.)        Total (a.u.)
 ------------------------------------------------------------------------------------

 L = 1.  Multiply by 2.5417464519 to convert [e a0] to [Debye]
 Dipole X            :         -1.3277289            1.3121278           -0.0156011
 Dipole Y            :          1.3360175           -1.3203261            0.0156914
 Dipole Z            :         15.6334349          -15.4498925            0.1835425
 Magnitude           :                                                    0.1848714

 ------------------------------------------------------------------------------------

*** tstop() called on cmpsrv002 at Thu Sep 19 14:25:59 2024
Module time:
	user time   =      26.44 seconds =       0.44 minutes
	system time =       1.40 seconds =       0.02 minutes
	total time  =        142 seconds =       2.37 minutes
Total time:
	user time   =      77.93 seconds =       1.30 minutes
	system time =       5.18 seconds =       0.09 minutes
	total time  =        596 seconds =       9.93 minutes
   => Libint2 <=

    Primary   basis highest AM E, G, H:  6, 6, 3
    Auxiliary basis highest AM E, G, H:  7, 7, 4
    Onebody   basis highest AM E, G, H:  -, -, -
    Solid Harmonics ordering:            Gaussian

*** tstart() called on cmpsrv002
*** at Thu Sep 19 14:25:59 2024

   => Loading Basis Set <=

    Name: THIS_BASIS
    Role: ORBITAL
    Keyword: BASIS
    atoms 1, 4-6 entry H          line    15 file /home/vance/anaconda3/envs/p4env/share/psi4/basis/def2-qzvp.gbs 
    atoms 2      entry I          line  3289 (ECP: line  4841) file /home/vance/anaconda3/envs/p4env/share/psi4/basis/def2-qzvp.gbs 
    atoms 3      entry N          line   242 file /home/vance/anaconda3/envs/p4env/share/psi4/basis/def2-qzvp.gbs 

    !!!  WARNING: ECP capability is in beta. Please check occupations closely.  !!!


         ---------------------------------------------------------
                          SAPT(DFT): DFT Monomer B                 
         ---------------------------------------------------------
                                   SCF
               by Justin Turney, Rob Parrish, Andy Simmonett
                          and Daniel G. A. Smith
                              RKS Reference
                        4 Threads,   7629 MiB Core
         ---------------------------------------------------------

  ==> Geometry <==

    Molecular point group: c1
    Full point group: C1

    Geometry (in Angstrom), charge = 0, multiplicity = 1:

       Center              X                  Y                   Z               Mass       
    ------------   -----------------  -----------------  -----------------  -----------------
      Gh(H)          -0.113582764438     0.114252443555     1.336327653854     1.007825032230
      Gh(I)           0.032317235562    -0.032517556445    -0.380482346146   126.904471900000
         N           -0.228972764438     0.230392443555     2.695737653854    14.003074004430
         H            0.061077235562    -0.630197556445     3.142417653854     1.007825032230
         H            0.355027235562     0.986652443555     3.029337653854     1.007825032230
         H           -1.190452764438     0.422722443555     2.946407653854     1.007825032230

  Running in c1 symmetry.

  Rotational constants: A =      6.16450  B =      0.10989  C =      0.10989 [cm^-1]
  Rotational constants: A = 184807.19162  B =   3294.40613  C =   3294.40594 [MHz]
  Nuclear repulsion =   11.944025219208763

  Charge       = 0
  Multiplicity = 1
  Electrons    = 10
  Nalpha       = 5
  Nbeta        = 5

  ==> Algorithm <==

  SCF Algorithm Type is DF.
  DIIS enabled.
  MOM disabled.
  Fractional occupation disabled.
  Guess Type is SAD.
  Energy threshold   = 1.00e-08
  Density threshold  = 1.00e-08
  Integral threshold = 1.00e-12

  ==> Primary Basis <==

  Basis Set: THIS_BASIS
    Blend: DEF2-QZVP
    Number of shells: 79
    Number of basis functions: 259
    Number of Cartesian functions: 316
    Spherical Harmonics?: true
    Max angular momentum: 4

  Core potential: THIS_BASIS
    Number of shells: 4
    Number of ECP primitives: 29
    Number of ECP core electrons: 0
    Max angular momentum: 3

  ==> DFT Potential <==

   => LibXC <=

    Version 6.2.2
    S. Lehtola, C. Steigemann, M. J.T. Oliveira, and M. A.L. Marques.,  SoftwareX 7, 15 (2018) (10.1016/j.softx.2017.11.002)

   => Composite Functional: PBE0 <= 

    PBE0 Hyb-GGA Exchange-Correlation Functional

    C. Adamo and V. Barone.,  J. Chem. Phys. 110, 6158 (1999) (10.1063/1.478522)
    M. Ernzerhof and G. E. Scuseria.,  J. Chem. Phys. 110, 5029 (1999) (10.1063/1.478401)

    Deriv               =              1
    GGA                 =           TRUE
    Meta                =          FALSE

    Exchange Hybrid     =           TRUE
    MP2 Hybrid          =          FALSE

   => Exchange Functionals <=

    0.7500   Perdew, Burke & Ernzerhof

   => Exact (HF) Exchange <=

    0.2500               HF 

   => Correlation Functionals <=

    1.0000   Perdew, Burke & Ernzerhof

   => LibXC Density Thresholds  <==

    XC_HYB_GGA_XC_PBEH:  1.00E-15 

   => Asymptotic Correction <=

    X Functional        =    XC_GGA_X_LB
    C Functional        =   XC_LDA_C_VWN
    Bulk Shift          =       0.113162
    GRAC Alpha          =       0.500000
    GRAC Beta           =      40.000000

   => Molecular Quadrature <=

    Radial Scheme          =       TREUTLER
    Pruning Scheme         =           NONE
    Nuclear Scheme         =       TREUTLER

    Blocking Scheme        =         OCTREE
    BS radius alpha        =              1
    Pruning alpha          =              1
    Radial Points          =             75
    Spherical Points       =            302
    Total Points           =         130011
    Total Blocks           =           1020
    Max Points             =            256
    Max Functions          =            251
    Weights Tolerance      =       1.00E-15

   => Loading Basis Set <=

    Name: (THIS_BASIS AUX)
    Role: JKFIT
    Keyword: DF_BASIS_SCF
    atoms 1, 4-6 entry H          line    18 file /home/vance/anaconda3/envs/p4env/share/psi4/basis/def2-universal-jkfit.gbs 
    atoms 2      entry I          line  4980 file /home/vance/anaconda3/envs/p4env/share/psi4/basis/def2-universal-jkfit.gbs 
    atoms 3      entry N          line   258 file /home/vance/anaconda3/envs/p4env/share/psi4/basis/def2-universal-jkfit.gbs 

  ==> Integral Setup <==

  ==> DiskDFJK: Density-Fitted J/K Matrices <==

    J tasked:                  Yes
    K tasked:                  Yes
    wK tasked:                  No
    OpenMP threads:              4
    Integrals threads:           4
    Memory [MiB]:             4914
    Algorithm:                Core
    Integral Cache:           SAVE
    Schwarz Cutoff:          1E-12
    Fitting Condition:       1E-10

   => Auxiliary Basis Set <=

  Basis Set: (THIS_BASIS AUX)
    Blend: DEF2-UNIVERSAL-JKFIT
    Number of shells: 95
    Number of basis functions: 367
    Number of Cartesian functions: 482
    Spherical Harmonics?: true
    Max angular momentum: 5

  Cached 100.0% of DFT collocation blocks in 0.789 [GiB].

  Minimum eigenvalue in the overlap matrix is 9.5083033366E-05.
  Reciprocal condition number of the overlap matrix is 1.0627972583E-05.
    Using symmetric orthogonalization.

  ==> Pre-Iterations <==

  SCF Guess: Superposition of Atomic Densities via on-the-fly atomic UHF (no occupation information).

   -------------------------
    Irrep   Nso     Nmo    
   -------------------------
     A        259     259 
   -------------------------
    Total     259     259
   -------------------------

  ==> Iterations <==

                           Total Energy        Delta E     RMS |[F,P]|

   @DF-RKS iter SAD:   -56.06795523371919   -5.60680e+01   0.00000e+00 
   @DF-RKS iter   1:   -56.27969767611142   -2.11742e-01   3.00382e-03 ADIIS/DIIS
   @DF-RKS iter   2:   -56.01510484687100    2.64593e-01   3.94943e-03 ADIIS/DIIS
   @DF-RKS iter   3:   -56.51853045401990   -5.03426e-01   2.14780e-04 ADIIS/DIIS
   @DF-RKS iter   4:   -56.52007841636348   -1.54796e-03   1.89921e-05 DIIS
   @DF-RKS iter   5:   -56.52008616901240   -7.75265e-06   4.98498e-06 DIIS
   @DF-RKS iter   6:   -56.52008623959256   -7.05802e-08   1.95810e-07 DIIS
   @DF-RKS iter   7:   -56.52008620089791    3.86947e-08   2.42951e-08 DIIS
   @DF-RKS iter   8:   -56.52008619152488    9.37303e-09   3.13328e-09 DIIS
  Energy and wave function converged.


  ==> Post-Iterations <==

   Electrons on quadrature grid:
      Ntotal   =   10.0000022641 ; deviation = 2.264e-06 

    Orbital Energies [Eh]
    ---------------------

    Doubly Occupied:                                                      

       1A    -14.471204     2A     -0.986447     3A     -0.591350  
       4A     -0.591349     5A     -0.390547  

    Virtual:                                                              

       6A     -0.086826     7A     -0.016477     8A     -0.016476  
       9A      0.007407    10A      0.043242    11A      0.043247  
      12A      0.064284    13A      0.119186    14A      0.119203  
      15A      0.128364    16A      0.187968    17A      0.265085  
      18A      0.265096    19A      0.268916    20A      0.268920  
      21A      0.271391    22A      0.311111    23A      0.329806  
      24A      0.329828    25A      0.394680    26A      0.394684  
      27A      0.413202    28A      0.427391    29A      0.427399  
      30A      0.512838    31A      0.557270    32A      0.613806  
      33A      0.649694    34A      0.649747    35A      0.674174  
      36A      0.716590    37A      0.716596    38A      0.727801  
      39A      0.801268    40A      0.801274    41A      0.888030  
      42A      0.888041    43A      0.938245    44A      0.947331  
      45A      0.963245    46A      0.970848    47A      0.970889  
      48A      1.017626    49A      1.030495    50A      1.030496  
      51A      1.069004    52A      1.100054    53A      1.106297  
      54A      1.106313    55A      1.221345    56A      1.227672  
      57A      1.227675    58A      1.236765    59A      1.236775  
      60A      1.279356    61A      1.289262    62A      1.289263  
      63A      1.413659    64A      1.413671    65A      1.422299  
      66A      1.517539    67A      1.664116    68A      1.664137  
      69A      1.850515    70A      1.949153    71A      1.949169  
      72A      1.977663    73A      2.011955    74A      2.039075  
      75A      2.054473    76A      2.054489    77A      2.168129  
      78A      2.168138    79A      2.236447    80A      2.236449  
      81A      2.316548    82A      2.322289    83A      2.322296  
      84A      2.407777    85A      2.407812    86A      2.438608  
      87A      2.505542    88A      2.507998    89A      2.512019  
      90A      2.512042    91A      2.563532    92A      2.563573  
      93A      2.615293    94A      2.620698    95A      2.620704  
      96A      2.649284    97A      2.695656    98A      2.695670  
      99A      2.735293   100A      2.816226   101A      2.816268  
     102A      2.884441   103A      2.937177   104A      2.937222  
     105A      2.976132   106A      3.040995   107A      3.041021  
     108A      3.063757   109A      3.065326   110A      3.074558  
     111A      3.074563   112A      3.112201   113A      3.150558  
     114A      3.150573   115A      3.178073   116A      3.247703  
     117A      3.298865   118A      3.298870   119A      3.348880  
     120A      3.348895   121A      3.383968   122A      3.448150  
     123A      3.448167   124A      3.504119   125A      3.504124  
     126A      3.519204   127A      3.575718   128A      3.575745  
     129A      3.598778   130A      3.793376   131A      3.924794  
     132A      3.965545   133A      3.965574   134A      4.024562  
     135A      4.130550   136A      4.130556   137A      4.211103  
     138A      4.211110   139A      4.304866   140A      4.843741  
     141A      5.010872   142A      5.010921   143A      5.323041  
     144A      5.775180   145A      5.775194   146A      5.850959  
     147A      5.850963   148A      5.885868   149A      5.922462  
     150A      5.922485   151A      6.049223   152A      6.084649  
     153A      6.137309   154A      6.222521   155A      6.222564  
     156A      6.283144   157A      6.505839   158A      6.629282  
     159A      6.629292   160A      6.796005   161A      6.796087  
     162A      6.850280   163A      7.025681   164A      7.025752  
     165A      7.116295   166A      7.159527   167A      7.159537  
     168A      7.243537   169A      7.250151   170A      7.250188  
     171A      7.307852   172A      7.538237   173A      7.538327  
     174A      7.583364   175A      7.686913   176A      7.686957  
     177A      7.829648   178A      7.829657   179A      7.841387  
     180A      7.887530   181A      8.006069   182A      8.006092  
     183A      8.014365   184A      8.080367   185A      8.132544  
     186A      8.132594   187A      8.180345   188A      8.293205  
     189A      8.426941   190A      8.426997   191A      8.437778  
     192A      8.497943   193A      8.497964   194A      8.543729  
     195A      8.543758   196A      8.632362   197A      8.818008  
     198A      8.818180   199A      8.921990   200A      8.922048  
     201A      9.184394   202A      9.231120   203A      9.231131  
     204A      9.415057   205A      9.415115   206A      9.427089  
     207A      9.675209   208A      9.675304   209A      9.727097  
     210A      9.779296   211A      9.846105   212A      9.846220  
     213A      9.907626   214A     10.086798   215A     10.090260  
     216A     10.090320   217A     10.354999   218A     10.451050  
     219A     10.451745   220A     10.462892   221A     10.462893  
     222A     10.670649   223A     10.670655   224A     11.046932  
     225A     11.063825   226A     11.155651   227A     11.155679  
     228A     11.558413   229A     11.594143   230A     11.594153  
     231A     11.783618   232A     11.783630   233A     11.901234  
     234A     12.112993   235A     13.644046   236A     13.644047  
     237A     14.299296   238A     14.299326   239A     14.475294  
     240A     14.475297   241A     14.516093   242A     14.576478  
     243A     14.576482   244A     15.133685   245A     15.278216  
     246A     32.340435   247A     32.340674   248A     32.342864  
     249A     32.342865   250A     32.415219   251A     32.415220  
     252A     32.579445   253A     36.177973   254A     38.395848  
     255A     90.785541   256A     90.785545   257A     90.874834  
     258A    167.871927   259A    197.913977  

    Final Occupation by Irrep:
              A 
    DOCC [     5 ]
    NA   [     5 ]
    NB   [     5 ]

  @DF-RKS Final Energy:   -56.52008619152488

   => Energetics <=

    Nuclear Repulsion Energy =             11.9440252192087630
    One-Electron Energy =                 -99.6856672074553387
    Two-Electron Energy =                  37.2644589990750390
    DFT Exchange-Correlation Energy =      -6.0429032023533473
    Empirical Dispersion Energy =           0.0000000000000000
    VV10 Nonlocal Energy =                  0.0000000000000000
    Total Energy =                        -56.5200861915248822

Computation Completed


Properties will be evaluated at   0.000000,   0.000000,   0.000000 [a0]

Properties computed using the SCF density matrix


 Multipole Moments:

 ------------------------------------------------------------------------------------
     Multipole            Electronic (a.u.)      Nuclear  (a.u.)        Total (a.u.)
 ------------------------------------------------------------------------------------

 L = 1.  Multiply by 2.5417464519 to convert [e a0] to [Debye]
 Dipole X            :          4.4447436           -4.4921769           -0.0474333
 Dipole Y            :         -4.4723372            4.5200821            0.0477449
 Dipole Z            :        -52.3309482           52.8902719            0.5593237
 Magnitude           :                                                    0.5633582

 ------------------------------------------------------------------------------------

*** tstop() called on cmpsrv002 at Thu Sep 19 14:27:36 2024
Module time:
	user time   =      23.82 seconds =       0.40 minutes
	system time =       0.86 seconds =       0.01 minutes
	total time  =         97 seconds =       1.62 minutes
Total time:
	user time   =     101.75 seconds =       1.70 minutes
	system time =       6.04 seconds =       0.10 minutes
	total time  =        693 seconds =      11.55 minutes

         ---------------------------------------------------------
               SAPT(DFT): Intermolecular Interaction Segment       

                   by Daniel G. A. Smith and Rob Parrish           
         ---------------------------------------------------------

  ==> Algorithm <==

   SAPT DFT Functional             PBE0
   Monomer A GRAC Shift        0.094577
   Monomer B GRAC Shift        0.113162
   Delta HF                        True
   JK Algorithm                      DF

  ==> Preparing SAPT Data Cache <== 

  ==> DiskDFJK: Density-Fitted J/K Matrices <==

    J tasked:                  Yes
    K tasked:                  Yes
    wK tasked:                  No
    OpenMP threads:              4
    Integrals threads:           4
    Memory [MiB]:             4914
    Algorithm:                Core
    Integral Cache:           SAVE
    Schwarz Cutoff:          1E-12
    Fitting Condition:       1E-10

   => Auxiliary Basis Set <=

  Basis Set: (THIS_BASIS AUX)
    Blend: DEF2-UNIVERSAL-JKFIT
    Number of shells: 95
    Number of basis functions: 367
    Number of Cartesian functions: 482
    Spherical Harmonics?: true
    Max angular momentum: 5


  ==> E10 Electostatics <== 

    Elst10,r                        -72.57834757 [mEh]

  ==> E10 Exchange <== 

    Exch10(S^2)                     134.28470951 [mEh]
    Exch10                          149.77148485 [mEh]

  ==> E20 Induction <== 

   => Uncoupled Induction <= 

    Ind20,u (A<-B)                  -47.30986244 [mEh]
    Ind20,u (A->B)                  -31.54399587 [mEh]
    Ind20,u                         -78.85385830 [mEh]
    Exch-Ind20,u (A<-B)              35.46690535 [mEh]
    Exch-Ind20,u (A->B)               5.64492218 [mEh]
    Exch-Ind20,u                     41.11182753 [mEh]
    Exch-Ind20,u (A<-B) (S^inf)      44.84808910 [mEh]
    Exch-Ind20,u (A->B) (S^inf)      10.20317867 [mEh]
    Exch-Ind20,u (S^inf)             55.05126776 [mEh]

   => Coupled Induction <= 

   ---------------------------------------------------
              SAPT Coupled Induction Solver           
   ---------------------------------------------------
    Maxiter             =          20
    Convergence         =   1.000E-06
   ---------------------------------------------------
     Iter       (A<-B)           (B->A)      Time [s]
   ---------------------------------------------------
    Guess    1.289903e-01     1.831685e-01          6
        1    4.413820e-02     6.280211e-02         11
        2    1.211679e-02     2.008218e-02         18
        3    3.567536e-03     1.848694e-03         25
        4    4.187866e-04     1.312851e-04         33
        5    1.033126e-04     1.087157e-05         37
        6    1.094809e-05     1.049085e-06         41
        7    1.482971e-06     9.176703e-08*        45
        8    1.297207e-07*    9.176703e-08*        47
   ---------------------------------------------------

    Ind20,r (A<-B)                  -50.12809228 [mEh]
    Ind20,r (A->B)                  -32.69388681 [mEh]
    Ind20,r                         -82.82197910 [mEh]
    Exch-Ind20,r (A<-B)              38.01989887 [mEh]
    Exch-Ind20,r (A->B)               7.01908213 [mEh]
    Exch-Ind20,r                     45.03898100 [mEh]
    Exch-Ind20,r (A<-B) (S^inf)      48.12826027 [mEh]
    Exch-Ind20,r (A->B) (S^inf)      12.26725884 [mEh]
    Exch-Ind20,r (S^inf)             60.39551910 [mEh]
   => Loading Basis Set <=

    Name: (THIS_BASIS AUX)
    Role: RIFIT
    Keyword: DF_BASIS_MP2
    atoms 1, 4-6 entry H          line    23 file /home/vance/anaconda3/envs/p4env/share/psi4/basis/def2-qzvp-ri.gbs 
    atoms 2      entry I          line  4948 file /home/vance/anaconda3/envs/p4env/share/psi4/basis/def2-qzvpp-ri.gbs 
    atoms 3      entry N          line   337 file /home/vance/anaconda3/envs/p4env/share/psi4/basis/def2-qzvp-ri.gbs 



  ==> E20 Dispersion (CHF FDDS) <== 

   Legendre Points:          10
   Lambda Shift:          0.300
   Fxc Kernal:             ALDA
   (P|Fxc|Q) Thresh:  1.000e-06
  DFHelper Memory: AOs need 0.328 GiB; user supplied 5.960 GiB. 
  Using in-core AOs.

  ==> DFHelper <==
    NBF:                             259
    NAux:                            641
    Schwarz Cutoff:                1E-12
    Mask sparsity (%):                 5
    DFH Avail. Memory [GiB]:       5.960
    OpenMP threads:                    4
    Algorithm:                    DIRECT
    AO Core:                        True
    MO Core:                       False
    Hold Metric:                   False
    Metric Power:                  0.000
    Fitting Condition:             1E-12
    Q Shell Max:                      13


  DFHelper Memory: AOs need 0.345 GiB; user supplied 5.960 GiB. 
  Using in-core AOs.


   => Time Integration <= 

       Omega       Weight       Disp20,u         Disp20   time [s]
   2.269e+01    6.667e-02      9.173e-04      8.674e-04          0
   4.147e+00    1.495e-01      1.318e-02      1.199e-02          1
   1.572e+00    2.191e-01      3.369e-02      2.811e-02          2
   7.589e-01    2.693e-01      5.104e-02      3.789e-02          2
   4.049e-01    2.955e-01      5.576e-02      3.684e-02          3
   2.223e-01    2.955e-01      4.720e-02      2.874e-02          4
   1.186e-01    2.693e-01      3.342e-02      1.956e-02          4
   5.727e-02    2.191e-01      2.119e-02      1.223e-02          5
   2.170e-02    1.495e-01      1.194e-02      6.862e-03          6
   3.966e-03    6.667e-02      4.770e-03      2.740e-03          7

    Disp20,u                        -43.46636201 [mEh]
    Disp20                          -29.57590065 [mEh]

  ==> E20 Dispersion (MP2) <== 


    Disp20 (MP2)                    -43.37730165 [mEh]
    Exch-Disp20,u                     7.93836453 [mEh]
    Scaling Scheme                    FIXED
    Scaling Factor                    0.770
    Est. Exch-Disp20,r                6.11254069 [mEh]

   SAPT(DFT) Results
  ---------------------------------------------------------------------------------------------------------
    Electrostatics                  -72.57834793 [mEh]    -45.54360091 [kcal/mol]   -190.55442623 [kJ/mol]
      Elst1,r                       -72.57834793 [mEh]    -45.54360091 [kcal/mol]   -190.55442623 [kJ/mol]

    Exchange                        149.77148478 [mEh]     93.98302560 [kcal/mol]    393.22497913 [kJ/mol]
      Exch1                         149.77148478 [mEh]     93.98302560 [kcal/mol]    393.22497913 [kJ/mol]
      Exch1(S^2)                    134.28470946 [mEh]     84.26492737 [kcal/mol]    352.56445610 [kJ/mol]

    Induction                       -77.68979879 [mEh]    -48.75108476 [kcal/mol]   -203.97453863 [kJ/mol]
      Ind2,r                        -82.82197864 [mEh]    -51.97157623 [kcal/mol]   -217.44907496 [kJ/mol]
      Exch-Ind2,r                    45.03898040 [mEh]     28.26238689 [kcal/mol]    118.24982675 [kJ/mol]
      Induction (A<-B)              -12.10819322 [mEh]     -7.59800595 [kcal/mol]    -31.79005691 [kJ/mol]
      Induction (A->B)              -25.67480502 [mEh]    -16.11118339 [kcal/mol]    -67.40919130 [kJ/mol]
      delta HF,r (2)                -39.90680055 [mEh]    -25.04189542 [kcal/mol]   -104.77529042 [kJ/mol]

    Dispersion                      -23.46336878 [mEh]    -14.72348620 [kcal/mol]    -61.60306624 [kJ/mol]
      Disp2,r                       -29.57590947 [mEh]    -18.55916339 [kcal/mol]    -77.65153961 [kJ/mol]
      Disp2,u                       -43.37730165 [mEh]    -27.21966773 [kcal/mol]   -113.88708978 [kJ/mol]
      Est. Exch-Disp2,r               6.11254069 [mEh]      3.83567719 [kcal/mol]     16.04847337 [kJ/mol]
      Exch-Disp2,u                    7.93836453 [mEh]      4.98139895 [kcal/mol]     20.84217320 [kJ/mol]

    Total SAPT(DFT)                 -23.96003071 [mEh]    -15.03514627 [kcal/mol]    -62.90705197 [kJ/mol]
  ---------------------------------------------------------------------------------------------------------

*** tstop() called on cmpsrv002 at Thu Sep 19 15:14:36 2024
Module time:
	user time   =     274.41 seconds =       4.57 minutes
	system time =      24.43 seconds =       0.41 minutes
	total time  =       2917 seconds =      48.62 minutes
Total time:
	user time   =     350.84 seconds =       5.85 minutes
	system time =      29.81 seconds =       0.50 minutes
	total time  =       3507 seconds =      58.45 minutes

    Psi4 stopped on: Thursday, 19 September 2024 03:14PM
    Psi4 wall time for execution: 0:58:27.71

*** Psi4 exiting successfully. Buy a developer a beer!
