
    -----------------------------------------------------------------------
          Psi4: An Open-Source Ab Initio Electronic Structure Package
                               Psi4 1.9.1 release

                         Git: Rev {} zzzzzzz 


    D. G. A. Smith, L. A. Burns, A. C. Simmonett, R. M. Parrish,
    M. C. Schieber, R. Galvelis, P. Kraus, H. Kruse, R. Di Remigio,
    A. Alenaizan, A. M. James, S. Lehtola, J. P. Misiewicz, M. Scheurer,
    R. A. Shaw, J. B. Schriber, Y. Xie, Z. L. Glick, D. A. Sirianni,
    J. S. O'Brien, J. M. Waldrop, A. Kumar, E. G. Hohenstein,
    B. P. Pritchard, B. R. Brooks, H. F. Schaefer III, A. Yu. Sokolov,
    K. Patkowski, A. E. DePrince III, U. Bozkaya, R. A. King,
    F. A. Evangelista, J. M. Turney, T. D. Crawford, C. D. Sherrill,
    J. Chem. Phys. 152(18) 184108 (2020). https://doi.org/10.1063/5.0006002

                            Additional Code Authors
    E. T. Seidl, C. L. Janssen, E. F. Valeev, M. L. Leininger,
    J. F. Gonthier, R. M. Richard, H. R. McAlexander, M. Saitow, X. Wang,
    P. Verma, M. H. Lechner, A. Jiang, S. Behnle, A. G. Heide,
    M. F. Herbst, and D. L. Poole

             Previous Authors, Complete List of Code Contributors,
                       and Citations for Specific Modules
    https://github.com/psi4/psi4/blob/master/codemeta.json
    https://github.com/psi4/psi4/graphs/contributors
    http://psicode.org/psi4manual/master/introduction.html#citing-psifour

    -----------------------------------------------------------------------


    Psi4 started on: Tuesday, 10 September 2024 05:19PM

    Process ID: 584429
    Host:       cmpsrv002
    PSIDATADIR: /home/vance/anaconda3/envs/p4env/share/psi4
    Memory:     500.0 MiB
    Threads:    4
    
  ==> Input File <==

--------------------------------------------------------------------------
molecule monomer{
    0 1
    H    0.000000216  -0.312689967   0.000000000
   Cl   -0.000001282   1.030655196   0.000000000    
    units angstrom
    Symmetry C1
}

set {
    basis                  aug-cc-pVQZ
}
dft_func = 'pbe0'
set freeze_core TRUE
# get the charge and multiplicity of the monomer
charge = monomer.molecular_charge()
mult   = monomer.multiplicity()

set reference rks
EN, wfn = energy(dft_func, return_wfn=True)

# We need to find the HOMO eigenvalue of this system
nelec_a   = wfn.nalpha()
epsilon_a = wfn.epsilon_a().np  # The .np is need to convert the Psi4 Vector object to an np.array
e_homo    = epsilon_a[nelec_a-1]

# now remove and electron and increase the multiplicity.
monomer.set_molecular_charge(charge+1)
monomer.set_multiplicity(mult+1)
set reference uks
EN1 = energy(dft_func)

IP = EN1 - EN
AC_shift = IP + e_homo

psi4.print_out("\n")
psi4.print_out("%s energies and IP \n\n" % (dft_func))
psi4.print_out("  Num Electrons   Charge     E_int [a.u.]            \n")
psi4.print_out("-----------------------------------------------------\n")
psi4.print_out("    N             %3d   %10.6f \n" % (charge,EN))
psi4.print_out("    N-1           %3d   %10.6f \n" % (charge+1,EN1))
psi4.print_out("-----------------------------------------------------\n")
psi4.print_out("    IP                  %10.6f   a.u. \n" % (IP))
psi4.print_out("    e_HOMO              %10.6f   a.u. \n" % (e_homo))
psi4.print_out("    AC-shift            %10.6f   a.u. \n" % (AC_shift))
psi4.print_out("-----------------------------------------------------\n")
--------------------------------------------------------------------------

Scratch directory: /scratch2/vance/psi4/
   => Libint2 <=

    Primary   basis highest AM E, G, H:  6, 6, 3
    Auxiliary basis highest AM E, G, H:  7, 7, 4
    Onebody   basis highest AM E, G, H:  -, -, -
    Solid Harmonics ordering:            Gaussian

*** tstart() called on cmpsrv002
*** at Tue Sep 10 17:19:29 2024

   => Loading Basis Set <=

    Name: AUG-CC-PVQZ
    Role: ORBITAL
    Keyword: BASIS
    atoms 1 entry H          line    40 file /home/vance/anaconda3/envs/p4env/share/psi4/basis/aug-cc-pvqz.gbs 
    atoms 2 entry CL         line  1222 file /home/vance/anaconda3/envs/p4env/share/psi4/basis/aug-cc-pvqz.gbs 


         ---------------------------------------------------------
                                   SCF
               by Justin Turney, Rob Parrish, Andy Simmonett
                          and Daniel G. A. Smith
                              RKS Reference
                        4 Threads,    500 MiB Core
         ---------------------------------------------------------

  ==> Geometry <==

    Molecular point group: c1
    Full point group: C_inf_v

    Geometry (in Angstrom), charge = 0, multiplicity = 1:

       Center              X                  Y                   Z               Mass       
    ------------   -----------------  -----------------  -----------------  -----------------
         H            0.000000000000     0.000000000000    -1.305713648136     1.007825032230
         CL          -0.000000000000     0.000000000000     0.037631514865    34.968852682000

  Running in c1 symmetry.

  Rotational constants: A = ************  B =      9.53621  C =      9.53621 [cm^-1]
  Rotational constants: A = ************  B = 285888.37669  C = 285888.37669 [MHz]
  Nuclear repulsion =    6.696724586623912

  Charge       = 0
  Multiplicity = 1
  Electrons    = 18
  Nalpha       = 9
  Nbeta        = 9

  ==> Algorithm <==

  SCF Algorithm Type is DF.
  DIIS enabled.
  MOM disabled.
  Fractional occupation disabled.
  Guess Type is SAD.
  Energy threshold   = 1.00e-06
  Density threshold  = 1.00e-06
  Integral threshold = 1.00e-12

  ==> Primary Basis <==

  Basis Set: AUG-CC-PVQZ
    Blend: AUG-CC-PVQZ
    Number of shells: 36
    Number of basis functions: 130
    Number of Cartesian functions: 164
    Spherical Harmonics?: true
    Max angular momentum: 4

  ==> DFT Potential <==

   => LibXC <=

    Version 6.2.2
    S. Lehtola, C. Steigemann, M. J.T. Oliveira, and M. A.L. Marques.,  SoftwareX 7, 1–5 (2018) (10.1016/j.softx.2017.11.002)

   => Composite Functional: PBE0 <= 

    PBE0 Hyb-GGA Exchange-Correlation Functional

    C. Adamo and V. Barone.,  J. Chem. Phys. 110, 6158 (1999) (10.1063/1.478522)
    M. Ernzerhof and G. E. Scuseria.,  J. Chem. Phys. 110, 5029 (1999) (10.1063/1.478401)

    Deriv               =              1
    GGA                 =           TRUE
    Meta                =          FALSE

    Exchange Hybrid     =           TRUE
    MP2 Hybrid          =          FALSE

   => Exchange Functionals <=

    0.7500   Perdew, Burke & Ernzerhof

   => Exact (HF) Exchange <=

    0.2500               HF 

   => Correlation Functionals <=

    1.0000   Perdew, Burke & Ernzerhof

   => LibXC Density Thresholds  <==

    XC_HYB_GGA_XC_PBEH:  1.00E-15 

   => Molecular Quadrature <=

    Radial Scheme          =       TREUTLER
    Pruning Scheme         =           NONE
    Nuclear Scheme         =       TREUTLER

    Blocking Scheme        =         OCTREE
    BS radius alpha        =              1
    Pruning alpha          =              1
    Radial Points          =             75
    Spherical Points       =            302
    Total Points           =          44591
    Total Blocks           =            408
    Max Points             =            256
    Max Functions          =            130
    Weights Tolerance      =       1.00E-15

   => Loading Basis Set <=

    Name: (AUG-CC-PVQZ AUX)
    Role: JKFIT
    Keyword: DF_BASIS_SCF
    atoms 1 entry H          line    70 file /home/vance/anaconda3/envs/p4env/share/psi4/basis/aug-cc-pvqz-jkfit.gbs 
    atoms 2 entry CL         line   904 file /home/vance/anaconda3/envs/p4env/share/psi4/basis/aug-cc-pvqz-jkfit.gbs 

  ==> Integral Setup <==

  DFHelper Memory: AOs need 0.038 GiB; user supplied 0.207 GiB. 
  Using in-core AOs.

  ==> MemDFJK: Density-Fitted J/K Matrices <==

    J tasked:                   Yes
    K tasked:                   Yes
    wK tasked:                   No
    OpenMP threads:               4
    Memory [MiB]:               211
    Algorithm:                 Core
    Schwarz Cutoff:           1E-12
    Mask sparsity (%):       0.0000
    Fitting Condition:        1E-10

   => Auxiliary Basis Set <=

  Basis Set: (AUG-CC-PVQZ AUX)
    Blend: AUG-CC-PVQZ-JKFIT
    Number of shells: 64
    Number of basis functions: 260
    Number of Cartesian functions: 348
    Spherical Harmonics?: true
    Max angular momentum: 5

  Cached 100.0% of DFT collocation blocks in 0.159 [GiB].

  Minimum eigenvalue in the overlap matrix is 1.1150625706E-04.
  Reciprocal condition number of the overlap matrix is 1.9488530321E-05.
    Using symmetric orthogonalization.

  ==> Pre-Iterations <==

  SCF Guess: Superposition of Atomic Densities via on-the-fly atomic UHF (no occupation information).

   -------------------------
    Irrep   Nso     Nmo    
   -------------------------
     A        130     130 
   -------------------------
    Total     130     130
   -------------------------

  ==> Iterations <==

                           Total Energy        Delta E     RMS |[F,P]|

   @DF-RKS iter SAD:  -460.52671911509543   -4.60527e+02   0.00000e+00 
   @DF-RKS iter   1:  -460.65087417854477   -1.24155e-01   1.92091e-03 DIIS/ADIIS
   @DF-RKS iter   2:  -460.65427989011806   -3.40571e-03   1.70415e-03 DIIS/ADIIS
   @DF-RKS iter   3:  -460.67484137760351   -2.05615e-02   1.38672e-04 DIIS/ADIIS
   @DF-RKS iter   4:  -460.67501910620325   -1.77729e-04   2.19398e-05 DIIS
   @DF-RKS iter   5:  -460.67502324904365   -4.14284e-06   3.33423e-06 DIIS
   @DF-RKS iter   6:  -460.67502334925837   -1.00215e-07   1.16495e-07 DIIS
  Energy and wave function converged.


  ==> Post-Iterations <==

   Electrons on quadrature grid:
      Ntotal   =   17.9999999381 ; deviation = -6.191e-08 

    Orbital Energies [Eh]
    ---------------------

    Doubly Occupied:                                                      

       1A   -101.747765     2A     -9.549880     3A     -7.285461  
       4A     -7.277016     5A     -7.277016     6A     -0.860581  
       7A     -0.479925     8A     -0.347617     9A     -0.347617  

    Virtual:                                                              

      10A     -0.025469    11A      0.035380    12A      0.055775  
      13A      0.061606    14A      0.061606    15A      0.102879  
      16A      0.131683    17A      0.131683    18A      0.182380  
      19A      0.182380    20A      0.205618    21A      0.259773  
      22A      0.259773    23A      0.271007    24A      0.355191  
      25A      0.372576    26A      0.372576    27A      0.393784  
      28A      0.473599    29A      0.473599    30A      0.504387  
      31A      0.504387    32A      0.570199    33A      0.570199  
      34A      0.577734    35A      0.612057    36A      0.612057  
      37A      0.683437    38A      0.693485    39A      0.693485  
      40A      0.799331    41A      0.806982    42A      0.806982  
      43A      0.841936    44A      0.841936    45A      0.979372  
      46A      1.132933    47A      1.132933    48A      1.203281  
      49A      1.344876    50A      1.442329    51A      1.442329  
      52A      1.444662    53A      1.444662    54A      1.494939  
      55A      1.494939    56A      1.586264    57A      1.586264  
      58A      1.597671    59A      1.673189    60A      1.673189  
      61A      1.699076    62A      1.699076    63A      1.700721  
      64A      1.732388    65A      1.732388    66A      1.811323  
      67A      1.811323    68A      1.823402    69A      1.823405  
      70A      1.871363    71A      1.871363    72A      1.901274  
      73A      1.901274    74A      1.927392    75A      1.927392  
      76A      1.953067    77A      2.279190    78A      2.279190  
      79A      2.336315    80A      2.476417    81A      2.754489  
      82A      2.844725    83A      2.844727    84A      2.858434  
      85A      2.858434    86A      3.286771    87A      3.427573  
      88A      3.427573    89A      3.669594    90A      3.933354  
      91A      3.933354    92A      4.116950    93A      4.116950  
      94A      4.151117    95A      4.297859    96A      4.297859  
      97A      4.325056    98A      4.325056    99A      4.341061  
     100A      4.341061   101A      4.368016   102A      4.368016  
     103A      4.386045   104A      4.386045   105A      4.467794  
     106A      4.467794   107A      4.657240   108A      4.953889  
     109A      4.953889   110A      5.004241   111A      5.747262  
     112A      5.747262   113A      6.281707   114A      6.281707  
     115A      6.665469   116A      6.667413   117A      6.667423  
     118A      7.227522   119A      7.227522   120A      7.649628  
     121A      7.765664   122A      8.265078   123A      8.265108  
     124A      8.268536   125A      8.268536   126A      9.003081  
     127A      9.003081   128A      9.343746   129A     10.561783  
     130A     24.446307  

    Final Occupation by Irrep:
              A 
    DOCC [     9 ]
    NA   [     9 ]
    NB   [     9 ]

  @DF-RKS Final Energy:  -460.67502334925837

   => Energetics <=

    Nuclear Repulsion Energy =              6.6967245866239118
    One-Electron Energy =                -649.2372187472587939
    Two-Electron Energy =                 203.3163595693076218
    DFT Exchange-Correlation Energy =     -21.4508887579310432
    Empirical Dispersion Energy =           0.0000000000000000
    VV10 Nonlocal Energy =                  0.0000000000000000
    Total Energy =                       -460.6750233492583675

Computation Completed


Properties will be evaluated at   0.000000,   0.000000,   0.000000 [a0]

Properties computed using the SCF density matrix


 Multipole Moments:

 ------------------------------------------------------------------------------------
     Multipole            Electronic (a.u.)      Nuclear  (a.u.)        Total (a.u.)
 ------------------------------------------------------------------------------------

 L = 1.  Multiply by 2.5417464519 to convert [e a0] to [Debye]
 Dipole X            :          0.0000000            0.0000000            0.0000000
 Dipole Y            :          0.0000000            0.0000000            0.0000000
 Dipole Z            :          0.7885184           -1.2585158           -0.4699974
 Magnitude           :                                                    0.4699974

 ------------------------------------------------------------------------------------

*** tstop() called on cmpsrv002 at Tue Sep 10 17:19:30 2024
Module time:
	user time   =       3.63 seconds =       0.06 minutes
	system time =       0.48 seconds =       0.01 minutes
	total time  =          1 seconds =       0.02 minutes
Total time:
	user time   =       3.63 seconds =       0.06 minutes
	system time =       0.48 seconds =       0.01 minutes
	total time  =          1 seconds =       0.02 minutes

Scratch directory: /scratch2/vance/psi4/
   => Libint2 <=

    Primary   basis highest AM E, G, H:  6, 6, 3
    Auxiliary basis highest AM E, G, H:  7, 7, 4
    Onebody   basis highest AM E, G, H:  -, -, -
    Solid Harmonics ordering:            Gaussian

*** tstart() called on cmpsrv002
*** at Tue Sep 10 17:19:30 2024

   => Loading Basis Set <=

    Name: AUG-CC-PVQZ
    Role: ORBITAL
    Keyword: BASIS
    atoms 1 entry H          line    40 file /home/vance/anaconda3/envs/p4env/share/psi4/basis/aug-cc-pvqz.gbs 
    atoms 2 entry CL         line  1222 file /home/vance/anaconda3/envs/p4env/share/psi4/basis/aug-cc-pvqz.gbs 


         ---------------------------------------------------------
                                   SCF
               by Justin Turney, Rob Parrish, Andy Simmonett
                          and Daniel G. A. Smith
                              UKS Reference
                        4 Threads,    500 MiB Core
         ---------------------------------------------------------

  ==> Geometry <==

    Molecular point group: c1
    Full point group: C_inf_v

    Geometry (in Angstrom), charge = 1, multiplicity = 2:

       Center              X                  Y                   Z               Mass       
    ------------   -----------------  -----------------  -----------------  -----------------
         H            0.000000000000     0.000000000000    -1.305713648136     1.007825032230
         CL          -0.000000000000     0.000000000000     0.037631514865    34.968852682000

  Running in c1 symmetry.

  Rotational constants: A = ************  B =      9.53621  C =      9.53621 [cm^-1]
  Rotational constants: A = ************  B = 285888.37669  C = 285888.37669 [MHz]
  Nuclear repulsion =    6.696724586623912

  Charge       = 1
  Multiplicity = 2
  Electrons    = 17
  Nalpha       = 9
  Nbeta        = 8

  ==> Algorithm <==

  SCF Algorithm Type is DF.
  DIIS enabled.
  MOM disabled.
  Fractional occupation disabled.
  Guess Type is SAD.
  Energy threshold   = 1.00e-06
  Density threshold  = 1.00e-06
  Integral threshold = 1.00e-12

  ==> Primary Basis <==

  Basis Set: AUG-CC-PVQZ
    Blend: AUG-CC-PVQZ
    Number of shells: 36
    Number of basis functions: 130
    Number of Cartesian functions: 164
    Spherical Harmonics?: true
    Max angular momentum: 4

  ==> DFT Potential <==

   => LibXC <=

    Version 6.2.2
    S. Lehtola, C. Steigemann, M. J.T. Oliveira, and M. A.L. Marques.,  SoftwareX 7, 1–5 (2018) (10.1016/j.softx.2017.11.002)

   => Composite Functional: PBE0 <= 

    PBE0 Hyb-GGA Exchange-Correlation Functional

    C. Adamo and V. Barone.,  J. Chem. Phys. 110, 6158 (1999) (10.1063/1.478522)
    M. Ernzerhof and G. E. Scuseria.,  J. Chem. Phys. 110, 5029 (1999) (10.1063/1.478401)

    Deriv               =              1
    GGA                 =           TRUE
    Meta                =          FALSE

    Exchange Hybrid     =           TRUE
    MP2 Hybrid          =          FALSE

   => Exchange Functionals <=

    0.7500   Perdew, Burke & Ernzerhof

   => Exact (HF) Exchange <=

    0.2500               HF 

   => Correlation Functionals <=

    1.0000   Perdew, Burke & Ernzerhof

   => LibXC Density Thresholds  <==

    XC_HYB_GGA_XC_PBEH:  1.00E-15 

   => Molecular Quadrature <=

    Radial Scheme          =       TREUTLER
    Pruning Scheme         =           NONE
    Nuclear Scheme         =       TREUTLER

    Blocking Scheme        =         OCTREE
    BS radius alpha        =              1
    Pruning alpha          =              1
    Radial Points          =             75
    Spherical Points       =            302
    Total Points           =          44591
    Total Blocks           =            408
    Max Points             =            256
    Max Functions          =            130
    Weights Tolerance      =       1.00E-15

   => Loading Basis Set <=

    Name: (AUG-CC-PVQZ AUX)
    Role: JKFIT
    Keyword: DF_BASIS_SCF
    atoms 1 entry H          line    70 file /home/vance/anaconda3/envs/p4env/share/psi4/basis/aug-cc-pvqz-jkfit.gbs 
    atoms 2 entry CL         line   904 file /home/vance/anaconda3/envs/p4env/share/psi4/basis/aug-cc-pvqz-jkfit.gbs 

  ==> Integral Setup <==

  DFHelper Memory: AOs need 0.038 GiB; user supplied 0.207 GiB. 
  Using in-core AOs.

  ==> MemDFJK: Density-Fitted J/K Matrices <==

    J tasked:                   Yes
    K tasked:                   Yes
    wK tasked:                   No
    OpenMP threads:               4
    Memory [MiB]:               211
    Algorithm:                 Core
    Schwarz Cutoff:           1E-12
    Mask sparsity (%):       0.0000
    Fitting Condition:        1E-10

   => Auxiliary Basis Set <=

  Basis Set: (AUG-CC-PVQZ AUX)
    Blend: AUG-CC-PVQZ-JKFIT
    Number of shells: 64
    Number of basis functions: 260
    Number of Cartesian functions: 348
    Spherical Harmonics?: true
    Max angular momentum: 5

  Cached 100.0% of DFT collocation blocks in 0.159 [GiB].

  Minimum eigenvalue in the overlap matrix is 1.1150625706E-04.
  Reciprocal condition number of the overlap matrix is 1.9488530321E-05.
    Using symmetric orthogonalization.

  ==> Pre-Iterations <==

  SCF Guess: Superposition of Atomic Densities via on-the-fly atomic UHF (no occupation information).

   -------------------------
    Irrep   Nso     Nmo    
   -------------------------
     A        130     130 
   -------------------------
    Total     130     130
   -------------------------

  ==> Iterations <==

                           Total Energy        Delta E     RMS |[F,P]|

   @DF-UKS iter SAD:  -460.52671911506440   -4.60527e+02   0.00000e+00 
   @DF-UKS iter   1:  -460.19700025122938    3.29719e-01   1.16190e-03 DIIS/ADIIS
   @DF-UKS iter   2:  -460.20979045612279   -1.27902e-02   4.07527e-04 DIIS/ADIIS
   @DF-UKS iter   3:  -460.21094843366541   -1.15798e-03   1.83359e-04 DIIS/ADIIS
   @DF-UKS iter   4:  -460.21114750956900   -1.99076e-04   2.73788e-05 DIIS
   @DF-UKS iter   5:  -460.21115366278582   -6.15322e-06   1.38781e-05 DIIS
   @DF-UKS iter   6:  -460.21115541678364   -1.75400e-06   1.60969e-06 DIIS
   @DF-UKS iter   7:  -460.21115546019882   -4.34152e-08   3.40830e-07 DIIS
  Energy and wave function converged.


  ==> Post-Iterations <==

   Electrons on quadrature grid:
      Nalpha   =    8.9999999729 ; deviation = -2.714e-08
      Nbeta    =    7.9999999714 ; deviation = -2.857e-08
      Ntotal   =   16.9999999443 ; deviation = -5.571e-08 

   @Spin Contamination Metric:   4.870693141E-03
   @S^2 Expected:                7.500000000E-01
   @S^2 Observed:                7.548706931E-01
   @S   Expected:                5.000000000E-01
   @S   Observed:                5.000000000E-01

    Orbital Energies [Eh]
    ---------------------

    Alpha Occupied:                                                       

       1A   -102.196745     2A     -9.991730     3A     -7.738024  
       4A     -7.721342     5A     -7.712492     6A     -1.278763  
       7A     -0.852167     8A     -0.789260     9A     -0.726790  

    Alpha Virtual:                                                        

      10A     -0.315161    11A     -0.174783    12A     -0.136993  
      13A     -0.121596    14A     -0.119039    15A     -0.110270  
      16A     -0.098304    17A     -0.090240    18A     -0.088865  
      19A     -0.054319    20A      0.022861    21A      0.049464  
      22A      0.058825    23A      0.070626    24A      0.123175  
      25A      0.139100    26A      0.141597    27A      0.172312  
      28A      0.193671    29A      0.194797    30A      0.198489  
      31A      0.214341    32A      0.312611    33A      0.315479  
      34A      0.324027    35A      0.366716    36A      0.377445  
      37A      0.415080    38A      0.415086    39A      0.440997  
      40A      0.545560    41A      0.548861    42A      0.560041  
      43A      0.587200    44A      0.588259    45A      0.712379  
      46A      0.846936    47A      0.864614    48A      0.934227  
      49A      1.037873    50A      1.101914    51A      1.124496  
      52A      1.126499    53A      1.130510    54A      1.157249  
      55A      1.157524    56A      1.235326    57A      1.267185  
      58A      1.295385    59A      1.351351    60A      1.351409  
      61A      1.365710    62A      1.365928    63A      1.434889  
      64A      1.445069    65A      1.446035    66A      1.454957  
      67A      1.468391    68A      1.536022    69A      1.559641  
      70A      1.577071    71A      1.577545    72A      1.602715  
      73A      1.605560    74A      1.605714    75A      1.607220  
      76A      1.638245    77A      1.959068    78A      1.978714  
      79A      2.023981    80A      2.161592    81A      2.419414  
      82A      2.536329    83A      2.536887    84A      2.543683  
      85A      2.557021    86A      2.934444    87A      3.100463  
      88A      3.117636    89A      3.346483    90A      3.518931  
      91A      3.520503    92A      3.700107    93A      3.742409  
      94A      3.762633    95A      3.896022    96A      3.897563  
      97A      3.899120    98A      3.899244    99A      3.937359  
     100A      3.953821   101A      3.953867   102A      3.972225  
     103A      3.986866   104A      3.988602   105A      4.073882  
     106A      4.075299   107A      4.288348   108A      4.571097  
     109A      4.600629   110A      4.641322   111A      5.308411  
     112A      5.355005   113A      5.960882   114A      5.960887  
     115A      6.301406   116A      6.339923   117A      6.340315  
     118A      6.881673   119A      6.893835   120A      7.306232  
     121A      7.427914   122A      7.922625   123A      7.932621  
     124A      7.932641   125A      7.932826   126A      8.673133  
     127A      8.679554   128A      9.015774   129A     10.204656  
     130A     24.021413  

    Beta Occupied:                                                        

       1A   -102.189203     2A     -9.984137     3A     -7.716864  
       4A     -7.711697     5A     -7.708295     6A     -1.219884  
       7A     -0.836755     8A     -0.709226  

    Beta Virtual:                                                         

       9A     -0.578740    10A     -0.303439    11A     -0.164530  
      12A     -0.119769    13A     -0.115766    14A     -0.114636  
      15A     -0.096129    16A     -0.091160    17A     -0.063053  
      18A     -0.058800    19A     -0.051216    20A      0.026634  
      21A      0.060010    22A      0.063030    23A      0.073805  
      24A      0.142356    25A      0.146990    26A      0.148183  
      27A      0.179130    28A      0.216987    29A      0.222088  
      30A      0.227082    31A      0.232450    32A      0.322251  
      33A      0.323354    34A      0.330089    35A      0.378064  
      36A      0.379281    37A      0.431635    38A      0.432926  
      39A      0.446983    40A      0.554890    41A      0.560762  
      42A      0.561149    43A      0.596160    44A      0.598036  
      45A      0.724766    46A      0.867009    47A      0.869768  
      48A      0.938942    49A      1.048596    50A      1.134203  
      51A      1.136373    52A      1.161804    53A      1.165584  
      54A      1.165754    55A      1.167197    56A      1.274470  
      57A      1.281516    58A      1.304038    59A      1.376072  
      60A      1.376557    61A      1.385258    62A      1.388050  
      63A      1.439441    64A      1.468983    65A      1.469498  
      66A      1.490293    67A      1.492287    68A      1.561852  
      69A      1.563173    70A      1.580774    71A      1.581434  
      72A      1.618301    73A      1.618775    74A      1.622936  
      75A      1.625598    76A      1.646412    77A      1.980115  
      78A      1.980302    79A      2.037212    80A      2.170799  
      81A      2.431518    82A      2.543080    83A      2.544420  
      84A      2.554278    85A      2.555583    86A      2.949333  
      87A      3.114485    88A      3.116941    89A      3.355103  
      90A      3.550379    91A      3.554854    92A      3.749265  
      93A      3.750054    94A      3.785548    95A      3.929803  
      96A      3.934451    97A      3.955198    98A      3.956291  
      99A      3.975579   100A      3.977612   101A      4.009309  
     102A      4.010207   103A      4.025654   104A      4.027082  
     105A      4.102582   106A      4.106982   107A      4.302916  
     108A      4.598955   109A      4.600770   110A      4.649996  
     111A      5.359225   112A      5.362000   113A      5.959181  
     114A      5.959213   115A      6.305524   116A      6.341615  
     117A      6.342378   118A      6.887377   119A      6.890069  
     120A      7.306409   121A      7.424446   122A      7.926029  
     123A      7.928182   124A      7.928381   125A      7.928487  
     126A      8.672334   127A      8.674251   128A      9.012509  
     129A     10.204126   130A     24.040855  

    Final Occupation by Irrep:
              A 
    DOCC [     8 ]
    SOCC [     1 ]
    NA   [     9 ]
    NB   [     8 ]

  @DF-UKS Final Energy:  -460.21115546019882

   => Energetics <=

    Nuclear Repulsion Energy =              6.6967245866239118
    One-Electron Energy =                -641.7457072690845052
    Two-Electron Energy =                 196.0379536609137290
    DFT Exchange-Correlation Energy =     -21.2001264386519139
    Empirical Dispersion Energy =           0.0000000000000000
    VV10 Nonlocal Energy =                  0.0000000000000000
    Total Energy =                       -460.2111554601988246

  UHF NO Occupations:
  HONO-2 :    7  A 1.9996751
  HONO-1 :    8  A 1.9981001
  HONO-0 :    9  A 1.0000000
  LUNO+0 :   10  A 0.0018999
  LUNO+1 :   11  A 0.0003249
  LUNO+2 :   12  A 0.0002113
  LUNO+3 :   13  A 0.0000006


Computation Completed


Properties will be evaluated at   0.000000,   0.000000,   0.000000 [a0]

Properties computed using the SCF density matrix


 Multipole Moments:

 ------------------------------------------------------------------------------------
     Multipole            Electronic (a.u.)      Nuclear  (a.u.)        Total (a.u.)
 ------------------------------------------------------------------------------------

 L = 1.  Multiply by 2.5417464519 to convert [e a0] to [Debye]
 Dipole X            :         -0.0000000            0.0000000           -0.0000000
 Dipole Y            :         -0.0000000            0.0000000           -0.0000000
 Dipole Z            :          0.5549125           -1.2585158           -0.7036034
 Magnitude           :                                                    0.7036034

 ------------------------------------------------------------------------------------

*** tstop() called on cmpsrv002 at Tue Sep 10 17:19:31 2024
Module time:
	user time   =       5.05 seconds =       0.08 minutes
	system time =       0.31 seconds =       0.01 minutes
	total time  =          1 seconds =       0.02 minutes
Total time:
	user time   =       8.75 seconds =       0.15 minutes
	system time =       0.80 seconds =       0.01 minutes
	total time  =          2 seconds =       0.03 minutes

pbe0 energies and IP 

  Num Electrons   Charge     E_int [a.u.]            
-----------------------------------------------------
    N               0   -460.675023 
    N-1             1   -460.211155 
-----------------------------------------------------
    IP                    0.463868   a.u. 
    e_HOMO               -0.347617   a.u. 
    AC-shift              0.116251   a.u. 
-----------------------------------------------------

    Psi4 stopped on: Tuesday, 10 September 2024 05:19PM
    Psi4 wall time for execution: 0:00:02.45

*** Psi4 exiting successfully. Buy a developer a beer!
