
    -----------------------------------------------------------------------
          Psi4: An Open-Source Ab Initio Electronic Structure Package
                               Psi4 1.9.1 release

                         Git: Rev {} zzzzzzz 


    D. G. A. Smith, L. A. Burns, A. C. Simmonett, R. M. Parrish,
    M. C. Schieber, R. Galvelis, P. Kraus, H. Kruse, R. Di Remigio,
    A. Alenaizan, A. M. James, S. Lehtola, J. P. Misiewicz, M. Scheurer,
    R. A. Shaw, J. B. Schriber, Y. Xie, Z. L. Glick, D. A. Sirianni,
    J. S. O'Brien, J. M. Waldrop, A. Kumar, E. G. Hohenstein,
    B. P. Pritchard, B. R. Brooks, H. F. Schaefer III, A. Yu. Sokolov,
    K. Patkowski, A. E. DePrince III, U. Bozkaya, R. A. King,
    F. A. Evangelista, J. M. Turney, T. D. Crawford, C. D. Sherrill,
    J. Chem. Phys. 152(18) 184108 (2020). https://doi.org/10.1063/5.0006002

                            Additional Code Authors
    E. T. Seidl, C. L. Janssen, E. F. Valeev, M. L. Leininger,
    J. F. Gonthier, R. M. Richard, H. R. McAlexander, M. Saitow, X. Wang,
    P. Verma, M. H. Lechner, A. Jiang, S. Behnle, A. G. Heide,
    M. F. Herbst, and D. L. Poole

             Previous Authors, Complete List of Code Contributors,
                       and Citations for Specific Modules
    https://github.com/psi4/psi4/blob/master/codemeta.json
    https://github.com/psi4/psi4/graphs/contributors
    http://psicode.org/psi4manual/master/introduction.html#citing-psifour

    -----------------------------------------------------------------------


    Psi4 started on: Tuesday, 10 September 2024 05:18PM

    Process ID: 584424
    Host:       cmpsrv002
    PSIDATADIR: /home/vance/anaconda3/envs/p4env/share/psi4
    Memory:     500.0 MiB
    Threads:    4
    
  ==> Input File <==

--------------------------------------------------------------------------
molecule monomer{
    0 1
    N    0.000002238  -1.690125077   0.000000000
    H   -0.473181893  -2.049133129   0.819577485
    H   -0.473181893  -2.049133129  -0.819577485
    H    0.946368414  -2.049134909   0.000000000
    units angstrom
    Symmetry C1
}

set {
    basis                  aug-cc-pVQZ
}
dft_func = 'pbe0'
set freeze_core TRUE
# get the charge and multiplicity of the monomer
charge = monomer.molecular_charge()
mult   = monomer.multiplicity()

set reference rks
EN, wfn = energy(dft_func, return_wfn=True)

# We need to find the HOMO eigenvalue of this system
nelec_a   = wfn.nalpha()
epsilon_a = wfn.epsilon_a().np  # The .np is need to convert the Psi4 Vector object to an np.array
e_homo    = epsilon_a[nelec_a-1]

# now remove and electron and increase the multiplicity.
monomer.set_molecular_charge(charge+1)
monomer.set_multiplicity(mult+1)
set reference uks
EN1 = energy(dft_func)

IP = EN1 - EN
AC_shift = IP + e_homo

psi4.print_out("\n")
psi4.print_out("%s energies and IP \n\n" % (dft_func))
psi4.print_out("  Num Electrons   Charge     E_int [a.u.]            \n")
psi4.print_out("-----------------------------------------------------\n")
psi4.print_out("    N             %3d   %10.6f \n" % (charge,EN))
psi4.print_out("    N-1           %3d   %10.6f \n" % (charge+1,EN1))
psi4.print_out("-----------------------------------------------------\n")
psi4.print_out("    IP                  %10.6f   a.u. \n" % (IP))
psi4.print_out("    e_HOMO              %10.6f   a.u. \n" % (e_homo))
psi4.print_out("    AC-shift            %10.6f   a.u. \n" % (AC_shift))
psi4.print_out("-----------------------------------------------------\n")
--------------------------------------------------------------------------

Scratch directory: /scratch2/vance/psi4/
   => Libint2 <=

    Primary   basis highest AM E, G, H:  6, 6, 3
    Auxiliary basis highest AM E, G, H:  7, 7, 4
    Onebody   basis highest AM E, G, H:  -, -, -
    Solid Harmonics ordering:            Gaussian

*** tstart() called on cmpsrv002
*** at Tue Sep 10 17:18:55 2024

   => Loading Basis Set <=

    Name: AUG-CC-PVQZ
    Role: ORBITAL
    Keyword: BASIS
    atoms 1   entry N          line   363 file /home/vance/anaconda3/envs/p4env/share/psi4/basis/aug-cc-pvqz.gbs 
    atoms 2-4 entry H          line    40 file /home/vance/anaconda3/envs/p4env/share/psi4/basis/aug-cc-pvqz.gbs 


         ---------------------------------------------------------
                                   SCF
               by Justin Turney, Rob Parrish, Andy Simmonett
                          and Daniel G. A. Smith
                              RKS Reference
                        4 Threads,    500 MiB Core
         ---------------------------------------------------------

  ==> Geometry <==

    Molecular point group: c1
    Full point group: Cs

    Geometry (in Angstrom), charge = 0, multiplicity = 1:

       Center              X                  Y                   Z               Mass       
    ------------   -----------------  -----------------  -----------------  -----------------
         N            0.000000123473     0.063750657412     0.000000000000    14.003074004430
         H           -0.473184007527    -0.295257394588     0.819577485000     1.007825032230
         H           -0.473184007527    -0.295257394588    -0.819577485000     1.007825032230
         H            0.946366299473    -0.295259174588     0.000000000000     1.007825032230

  Running in c1 symmetry.

  Rotational constants: A =     10.06777  B =     10.06776  C =      6.22546 [cm^-1]
  Rotational constants: A = 301824.10828  B = 301823.94934  C = 186634.48261 [MHz]
  Nuclear repulsion =   11.947563120007954

  Charge       = 0
  Multiplicity = 1
  Electrons    = 10
  Nalpha       = 5
  Nbeta        = 5

  ==> Algorithm <==

  SCF Algorithm Type is DF.
  DIIS enabled.
  MOM disabled.
  Fractional occupation disabled.
  Guess Type is SAD.
  Energy threshold   = 1.00e-06
  Density threshold  = 1.00e-06
  Integral threshold = 1.00e-12

  ==> Primary Basis <==

  Basis Set: AUG-CC-PVQZ
    Blend: AUG-CC-PVQZ
    Number of shells: 62
    Number of basis functions: 218
    Number of Cartesian functions: 270
    Spherical Harmonics?: true
    Max angular momentum: 4

  ==> DFT Potential <==

   => LibXC <=

    Version 6.2.2
    S. Lehtola, C. Steigemann, M. J.T. Oliveira, and M. A.L. Marques.,  SoftwareX 7, 1–5 (2018) (10.1016/j.softx.2017.11.002)

   => Composite Functional: PBE0 <= 

    PBE0 Hyb-GGA Exchange-Correlation Functional

    C. Adamo and V. Barone.,  J. Chem. Phys. 110, 6158 (1999) (10.1063/1.478522)
    M. Ernzerhof and G. E. Scuseria.,  J. Chem. Phys. 110, 5029 (1999) (10.1063/1.478401)

    Deriv               =              1
    GGA                 =           TRUE
    Meta                =          FALSE

    Exchange Hybrid     =           TRUE
    MP2 Hybrid          =          FALSE

   => Exchange Functionals <=

    0.7500   Perdew, Burke & Ernzerhof

   => Exact (HF) Exchange <=

    0.2500               HF 

   => Correlation Functionals <=

    1.0000   Perdew, Burke & Ernzerhof

   => LibXC Density Thresholds  <==

    XC_HYB_GGA_XC_PBEH:  1.00E-15 

   => Molecular Quadrature <=

    Radial Scheme          =       TREUTLER
    Pruning Scheme         =           NONE
    Nuclear Scheme         =       TREUTLER

    Blocking Scheme        =         OCTREE
    BS radius alpha        =              1
    Pruning alpha          =              1
    Radial Points          =             75
    Spherical Points       =            302
    Total Points           =          88573
    Total Blocks           =            714
    Max Points             =            256
    Max Functions          =            218
    Weights Tolerance      =       1.00E-15

   => Loading Basis Set <=

    Name: (AUG-CC-PVQZ AUX)
    Role: JKFIT
    Keyword: DF_BASIS_SCF
    atoms 1   entry N          line   248 file /home/vance/anaconda3/envs/p4env/share/psi4/basis/aug-cc-pvqz-jkfit.gbs 
    atoms 2-4 entry H          line    70 file /home/vance/anaconda3/envs/p4env/share/psi4/basis/aug-cc-pvqz-jkfit.gbs 

  ==> Integral Setup <==

  DFHelper Memory: AOs need 0.145 GiB; user supplied 0.145 GiB. 
  Using in-core AOs.

  ==> MemDFJK: Density-Fitted J/K Matrices <==

    J tasked:                   Yes
    K tasked:                   Yes
    wK tasked:                   No
    OpenMP threads:               4
    Memory [MiB]:               148
    Algorithm:                 Core
    Schwarz Cutoff:           1E-12
    Mask sparsity (%):       0.0000
    Fitting Condition:        1E-10

   => Auxiliary Basis Set <=

  Basis Set: (AUG-CC-PVQZ AUX)
    Blend: AUG-CC-PVQZ-JKFIT
    Number of shells: 88
    Number of basis functions: 370
    Number of Cartesian functions: 501
    Spherical Harmonics?: true
    Max angular momentum: 5

  Cached 33.3% of DFT collocation blocks in 0.180 [GiB].

  Minimum eigenvalue in the overlap matrix is 5.3545026369E-05.
  Reciprocal condition number of the overlap matrix is 5.4181979421E-06.
    Using symmetric orthogonalization.

  ==> Pre-Iterations <==

  SCF Guess: Superposition of Atomic Densities via on-the-fly atomic UHF (no occupation information).

   -------------------------
    Irrep   Nso     Nmo    
   -------------------------
     A        218     218 
   -------------------------
    Total     218     218
   -------------------------

  ==> Iterations <==

                           Total Energy        Delta E     RMS |[F,P]|

   @DF-RKS iter SAD:   -56.05946016947253   -5.60595e+01   0.00000e+00 
   @DF-RKS iter   1:   -56.27376718084897   -2.14307e-01   3.60816e-03 DIIS/ADIIS
   @DF-RKS iter   2:   -55.94790297363947    3.25864e-01   4.90967e-03 DIIS/ADIIS
   @DF-RKS iter   3:   -56.51749121765226   -5.69588e-01   3.04597e-04 DIIS/ADIIS
   @DF-RKS iter   4:   -56.51972756130347   -2.23634e-03   3.29782e-05 DIIS
   @DF-RKS iter   5:   -56.51974741022079   -1.98489e-05   7.51242e-06 DIIS
   @DF-RKS iter   6:   -56.51974839900527   -9.88784e-07   2.71177e-07 DIIS
  Energy and wave function converged.


  ==> Post-Iterations <==

   Electrons on quadrature grid:
      Ntotal   =    9.9999981520 ; deviation = -1.848e-06 

    Orbital Energies [Eh]
    ---------------------

    Doubly Occupied:                                                      

       1A    -14.358271     2A     -0.875862     3A     -0.478331  
       4A     -0.478330     5A     -0.280824  

    Virtual:                                                              

       6A     -0.007918     7A      0.028160     8A      0.028160  
       9A      0.065245    10A      0.084154    11A      0.107158  
      12A      0.107158    13A      0.124092    14A      0.124092  
      15A      0.143529    16A      0.143530    17A      0.156633  
      18A      0.237817    19A      0.247823    20A      0.254925  
      21A      0.254926    22A      0.282306    23A      0.292549  
      24A      0.292550    25A      0.323913    26A      0.323913  
      27A      0.346950    28A      0.389857    29A      0.389857  
      30A      0.463596    31A      0.466265    32A      0.466266  
      33A      0.503136    34A      0.591136    35A      0.607036  
      36A      0.607036    37A      0.615587    38A      0.630515  
      39A      0.630515    40A      0.672000    41A      0.672000  
      42A      0.679461    43A      0.680792    44A      0.740531  
      45A      0.740533    46A      0.756298    47A      0.770292  
      48A      0.770295    49A      0.779935    50A      0.779938  
      51A      0.847883    52A      0.885622    53A      0.885622  
      54A      1.003361    55A      1.094218    56A      1.094219  
      57A      1.208954    58A      1.210345    59A      1.210346  
      60A      1.215318    61A      1.227544    62A      1.304396  
      63A      1.304399    64A      1.373382    65A      1.373382  
      66A      1.403453    67A      1.409063    68A      1.441990  
      69A      1.517955    70A      1.517955    71A      1.546584  
      72A      1.546589    73A      1.578203    74A      1.617949  
      75A      1.617950    76A      1.687134    77A      1.694363  
      78A      1.694367    79A      1.724369    80A      1.755965  
      81A      1.755967    82A      1.843380    83A      1.843383  
      84A      1.887637    85A      1.893475    86A      1.893480  
      87A      1.934413    88A      1.954280    89A      1.976991  
      90A      1.976996    91A      2.028600    92A      2.140372  
      93A      2.140374    94A      2.159508    95A      2.221164  
      96A      2.221165    97A      2.510370    98A      2.634889  
      99A      2.634892   100A      2.688574   101A      2.690553  
     102A      2.699477   103A      2.699478   104A      2.755230  
     105A      2.755235   106A      2.817368   107A      2.818146  
     108A      2.818149   109A      2.893751   110A      2.914637  
     111A      2.944008   112A      2.944008   113A      3.033072  
     114A      3.033073   115A      3.161261   116A      3.161266  
     117A      3.197326   118A      3.304798   119A      3.304801  
     120A      3.359512   121A      3.472346   122A      3.633700  
     123A      3.665338   124A      3.665346   125A      3.877518  
     126A      3.897221   127A      3.897236   128A      3.913029  
     129A      3.913033   130A      3.952151   131A      3.986367  
     132A      4.039848   133A      4.154856   134A      4.154857  
     135A      4.413610   136A      4.413615   137A      4.658581  
     138A      4.658583   139A      4.754398   140A      4.859476  
     141A      4.859479   142A      5.017298   143A      5.017300  
     144A      5.171049   145A      5.295679   146A      6.525192  
     147A      6.525205   148A      6.575631   149A      6.627089  
     150A      6.627094   151A      6.729397   152A      7.021711  
     153A      7.056081   154A      7.056081   155A      7.085056  
     156A      7.085059   157A      7.207131   158A      7.353598  
     159A      7.354795   160A      7.354801   161A      7.500715  
     162A      7.500724   163A      7.593549   164A      7.649377  
     165A      7.649394   166A      7.868928   167A      7.953550  
     168A      7.953916   169A      7.953918   170A      8.147905  
     171A      8.270800   172A      8.270810   173A      8.328941  
     174A      8.328942   175A      8.498484   176A      8.498491  
     177A      8.499873   178A      8.553398   179A      8.598248  
     180A      8.598252   181A      8.598297   182A      8.670641  
     183A      8.726710   184A      8.898430   185A      8.898434  
     186A      9.022398   187A      9.022406   188A      9.082511  
     189A      9.082513   190A      9.120215   191A      9.343340  
     192A      9.369281   193A      9.511626   194A      9.511629  
     195A      9.653966   196A      9.653966   197A      9.736577  
     198A      9.838225   199A      9.838225   200A     10.110273  
     201A     10.110275   202A     10.336708   203A     10.441477  
     204A     10.560666   205A     10.560671   206A     11.264972  
     207A     11.763619   208A     11.763621   209A     11.779182  
     210A     11.896837   211A     11.896839   212A     12.624564  
     213A     12.624567   214A     12.642657   215A     14.234492  
     216A     14.496961   217A     14.496961   218A     35.332819  

    Final Occupation by Irrep:
              A 
    DOCC [     5 ]
    NA   [     5 ]
    NB   [     5 ]

  @DF-RKS Final Energy:   -56.51974839900527

   => Energetics <=

    Nuclear Repulsion Energy =             11.9475631200079544
    One-Electron Energy =                 -99.6792163290251523
    Two-Electron Energy =                  37.2549809504009986
    DFT Exchange-Correlation Energy =      -6.0430761403890720
    Empirical Dispersion Energy =           0.0000000000000000
    VV10 Nonlocal Energy =                  0.0000000000000000
    Total Energy =                        -56.5197483990052660

Computation Completed


Properties will be evaluated at   0.000000,   0.000000,   0.000000 [a0]

Properties computed using the SCF density matrix


 Multipole Moments:

 ------------------------------------------------------------------------------------
     Multipole            Electronic (a.u.)      Nuclear  (a.u.)        Total (a.u.)
 ------------------------------------------------------------------------------------

 L = 1.  Multiply by 2.5417464519 to convert [e a0] to [Debye]
 Dipole X            :          0.0000015           -0.0000016           -0.0000002
 Dipole Y            :          0.2589196           -0.8305712           -0.5716516
 Dipole Z            :         -0.0000000            0.0000000           -0.0000000
 Magnitude           :                                                    0.5716516

 ------------------------------------------------------------------------------------

*** tstop() called on cmpsrv002 at Tue Sep 10 17:18:57 2024
Module time:
	user time   =       8.45 seconds =       0.14 minutes
	system time =       0.49 seconds =       0.01 minutes
	total time  =          2 seconds =       0.03 minutes
Total time:
	user time   =       8.45 seconds =       0.14 minutes
	system time =       0.49 seconds =       0.01 minutes
	total time  =          2 seconds =       0.03 minutes

Scratch directory: /scratch2/vance/psi4/
   => Libint2 <=

    Primary   basis highest AM E, G, H:  6, 6, 3
    Auxiliary basis highest AM E, G, H:  7, 7, 4
    Onebody   basis highest AM E, G, H:  -, -, -
    Solid Harmonics ordering:            Gaussian

*** tstart() called on cmpsrv002
*** at Tue Sep 10 17:18:57 2024

   => Loading Basis Set <=

    Name: AUG-CC-PVQZ
    Role: ORBITAL
    Keyword: BASIS
    atoms 1   entry N          line   363 file /home/vance/anaconda3/envs/p4env/share/psi4/basis/aug-cc-pvqz.gbs 
    atoms 2-4 entry H          line    40 file /home/vance/anaconda3/envs/p4env/share/psi4/basis/aug-cc-pvqz.gbs 


         ---------------------------------------------------------
                                   SCF
               by Justin Turney, Rob Parrish, Andy Simmonett
                          and Daniel G. A. Smith
                              UKS Reference
                        4 Threads,    500 MiB Core
         ---------------------------------------------------------

  ==> Geometry <==

    Molecular point group: c1
    Full point group: Cs

    Geometry (in Angstrom), charge = 1, multiplicity = 2:

       Center              X                  Y                   Z               Mass       
    ------------   -----------------  -----------------  -----------------  -----------------
         N            0.000000123473     0.063750657412     0.000000000000    14.003074004430
         H           -0.473184007527    -0.295257394588     0.819577485000     1.007825032230
         H           -0.473184007527    -0.295257394588    -0.819577485000     1.007825032230
         H            0.946366299473    -0.295259174588     0.000000000000     1.007825032230

  Running in c1 symmetry.

  Rotational constants: A =     10.06777  B =     10.06776  C =      6.22546 [cm^-1]
  Rotational constants: A = 301824.10828  B = 301823.94934  C = 186634.48261 [MHz]
  Nuclear repulsion =   11.947563120007954

  Charge       = 1
  Multiplicity = 2
  Electrons    = 9
  Nalpha       = 5
  Nbeta        = 4

  ==> Algorithm <==

  SCF Algorithm Type is DF.
  DIIS enabled.
  MOM disabled.
  Fractional occupation disabled.
  Guess Type is SAD.
  Energy threshold   = 1.00e-06
  Density threshold  = 1.00e-06
  Integral threshold = 1.00e-12

  ==> Primary Basis <==

  Basis Set: AUG-CC-PVQZ
    Blend: AUG-CC-PVQZ
    Number of shells: 62
    Number of basis functions: 218
    Number of Cartesian functions: 270
    Spherical Harmonics?: true
    Max angular momentum: 4

  ==> DFT Potential <==

   => LibXC <=

    Version 6.2.2
    S. Lehtola, C. Steigemann, M. J.T. Oliveira, and M. A.L. Marques.,  SoftwareX 7, 1–5 (2018) (10.1016/j.softx.2017.11.002)

   => Composite Functional: PBE0 <= 

    PBE0 Hyb-GGA Exchange-Correlation Functional

    C. Adamo and V. Barone.,  J. Chem. Phys. 110, 6158 (1999) (10.1063/1.478522)
    M. Ernzerhof and G. E. Scuseria.,  J. Chem. Phys. 110, 5029 (1999) (10.1063/1.478401)

    Deriv               =              1
    GGA                 =           TRUE
    Meta                =          FALSE

    Exchange Hybrid     =           TRUE
    MP2 Hybrid          =          FALSE

   => Exchange Functionals <=

    0.7500   Perdew, Burke & Ernzerhof

   => Exact (HF) Exchange <=

    0.2500               HF 

   => Correlation Functionals <=

    1.0000   Perdew, Burke & Ernzerhof

   => LibXC Density Thresholds  <==

    XC_HYB_GGA_XC_PBEH:  1.00E-15 

   => Molecular Quadrature <=

    Radial Scheme          =       TREUTLER
    Pruning Scheme         =           NONE
    Nuclear Scheme         =       TREUTLER

    Blocking Scheme        =         OCTREE
    BS radius alpha        =              1
    Pruning alpha          =              1
    Radial Points          =             75
    Spherical Points       =            302
    Total Points           =          88573
    Total Blocks           =            714
    Max Points             =            256
    Max Functions          =            218
    Weights Tolerance      =       1.00E-15

   => Loading Basis Set <=

    Name: (AUG-CC-PVQZ AUX)
    Role: JKFIT
    Keyword: DF_BASIS_SCF
    atoms 1   entry N          line   248 file /home/vance/anaconda3/envs/p4env/share/psi4/basis/aug-cc-pvqz-jkfit.gbs 
    atoms 2-4 entry H          line    70 file /home/vance/anaconda3/envs/p4env/share/psi4/basis/aug-cc-pvqz-jkfit.gbs 

  ==> Integral Setup <==

  DFHelper Memory: AOs need 0.145 GiB; user supplied 0.145 GiB. 
  Using in-core AOs.

  ==> MemDFJK: Density-Fitted J/K Matrices <==

    J tasked:                   Yes
    K tasked:                   Yes
    wK tasked:                   No
    OpenMP threads:               4
    Memory [MiB]:               148
    Algorithm:                 Core
    Schwarz Cutoff:           1E-12
    Mask sparsity (%):       0.0000
    Fitting Condition:        1E-10

   => Auxiliary Basis Set <=

  Basis Set: (AUG-CC-PVQZ AUX)
    Blend: AUG-CC-PVQZ-JKFIT
    Number of shells: 88
    Number of basis functions: 370
    Number of Cartesian functions: 501
    Spherical Harmonics?: true
    Max angular momentum: 5

  Cached 33.3% of DFT collocation blocks in 0.180 [GiB].

  Minimum eigenvalue in the overlap matrix is 5.3545026369E-05.
  Reciprocal condition number of the overlap matrix is 5.4181979422E-06.
    Using symmetric orthogonalization.

  ==> Pre-Iterations <==

  SCF Guess: Superposition of Atomic Densities via on-the-fly atomic UHF (no occupation information).

   -------------------------
    Irrep   Nso     Nmo    
   -------------------------
     A        218     218 
   -------------------------
    Total     218     218
   -------------------------

  ==> Iterations <==

                           Total Energy        Delta E     RMS |[F,P]|

   @DF-UKS iter SAD:   -56.05946016947272   -5.60595e+01   0.00000e+00 
   @DF-UKS iter   1:   -56.08634076818170   -2.68806e-02   1.52566e-03 DIIS/ADIIS
   @DF-UKS iter   2:   -56.09462644284157   -8.28567e-03   1.29226e-03 DIIS/ADIIS
   @DF-UKS iter   3:   -56.12543847587833   -3.08120e-02   1.22863e-04 DIIS/ADIIS
   @DF-UKS iter   4:   -56.12574747162890   -3.08996e-04   2.33236e-05 DIIS
   @DF-UKS iter   5:   -56.12576080034088   -1.33287e-05   5.22245e-06 DIIS
   @DF-UKS iter   6:   -56.12576243212811   -1.63179e-06   1.31449e-06 DIIS
   @DF-UKS iter   7:   -56.12576253367704   -1.01549e-07   1.14733e-07 DIIS
  Energy and wave function converged.


  ==> Post-Iterations <==

   Electrons on quadrature grid:
      Nalpha   =    4.9999996786 ; deviation = -3.214e-07
      Nbeta    =    4.0000003566 ; deviation = 3.566e-07
      Ntotal   =    9.0000000352 ; deviation = 3.523e-08 

   @Spin Contamination Metric:   3.250218250E-03
   @S^2 Expected:                7.500000000E-01
   @S^2 Observed:                7.532502182E-01
   @S   Expected:                5.000000000E-01
   @S   Observed:                5.000000000E-01

    Orbital Energies [Eh]
    ---------------------

    Alpha Occupied:                                                       

       1A    -14.832472     2A     -1.309641     3A     -0.881985  
       4A     -0.881985     5A     -0.774915  

    Alpha Virtual:                                                        

       6A     -0.229162     7A     -0.156646     8A     -0.156646  
       9A     -0.119681    10A     -0.102300    11A     -0.102300  
      12A     -0.073588    13A     -0.052028    14A     -0.052028  
      15A     -0.045137    16A     -0.036904    17A     -0.036904  
      18A      0.042053    19A      0.070563    20A      0.070563  
      21A      0.081297    22A      0.091429    23A      0.091429  
      24A      0.094927    25A      0.129578    26A      0.131467  
      27A      0.131467    28A      0.159366    29A      0.159366  
      30A      0.213394    31A      0.234936    32A      0.234936  
      33A      0.270077    34A      0.347473    35A      0.388749  
      36A      0.388749    37A      0.397008    38A      0.409448  
      39A      0.409449    40A      0.451614    41A      0.451615  
      42A      0.456129    43A      0.475026    44A      0.510794  
      45A      0.510795    46A      0.528385    47A      0.540629  
      48A      0.540631    49A      0.558856    50A      0.558858  
      51A      0.564949    52A      0.610160    53A      0.610160  
      54A      0.730183    55A      0.814554    56A      0.814554  
      57A      0.898475    58A      0.929515    59A      0.929516  
      60A      0.932660    61A      0.961108    62A      1.033367  
      63A      1.033369    64A      1.096102    65A      1.096102  
      66A      1.118469    67A      1.142307    68A      1.165555  
      69A      1.248164    70A      1.248165    71A      1.257922  
      72A      1.257925    73A      1.277570    74A      1.349003  
      75A      1.349003    76A      1.427198    77A      1.427735  
      78A      1.427738    79A      1.470868    80A      1.487730  
      81A      1.487731    82A      1.564742    83A      1.564745  
      84A      1.618132    85A      1.637500    86A      1.637504  
      87A      1.682755    88A      1.686612    89A      1.713124  
      90A      1.713127    91A      1.731989    92A      1.857566  
      93A      1.857568    94A      1.898858    95A      1.918779  
      96A      1.918780    97A      2.131529    98A      2.307002  
      99A      2.307005   100A      2.354072   101A      2.358883  
     102A      2.373103   103A      2.373103   104A      2.425724  
     105A      2.425730   106A      2.448248   107A      2.465790  
     108A      2.465792   109A      2.551686   110A      2.599025  
     111A      2.602518   112A      2.602519   113A      2.701070  
     114A      2.701072   115A      2.794711   116A      2.794714  
     117A      2.823131   118A      2.984184   119A      2.984186  
     120A      2.996726   121A      3.153831   122A      3.264385  
     123A      3.307996   124A      3.308003   125A      3.517638  
     126A      3.542143   127A      3.542148   128A      3.573271  
     129A      3.573276   130A      3.611004   131A      3.652878  
     132A      3.693124   133A      3.812689   134A      3.812689  
     135A      4.050114   136A      4.050119   137A      4.291026  
     138A      4.291028   139A      4.369404   140A      4.482619  
     141A      4.482622   142A      4.642753   143A      4.642754  
     144A      4.810568   145A      4.906626   146A      6.172612  
     147A      6.172625   148A      6.226294   149A      6.273186  
     150A      6.273191   151A      6.377788   152A      6.656560  
     153A      6.683906   154A      6.683908   155A      6.703500  
     156A      6.703503   157A      6.823413   158A      6.974434  
     159A      6.974440   160A      7.007394   161A      7.103909  
     162A      7.103917   163A      7.224686   164A      7.287796  
     165A      7.287812   166A      7.481329   167A      7.542953  
     168A      7.583587   169A      7.583588   170A      7.746982  
     171A      7.907771   172A      7.907779   173A      7.956537  
     174A      7.956538   175A      8.094755   176A      8.123230  
     177A      8.123238   178A      8.180263   179A      8.218389  
     180A      8.235219   181A      8.235222   182A      8.304219  
     183A      8.311640   184A      8.505336   185A      8.505339  
     186A      8.630918   187A      8.630922   188A      8.681459  
     189A      8.681463   190A      8.702283   191A      8.903356  
     192A      9.002002   193A      9.102490   194A      9.102492  
     195A      9.261898   196A      9.261900   197A      9.352060  
     198A      9.409465   199A      9.409467   200A      9.685407  
     201A      9.685409   202A      9.898585   203A     10.027095  
     204A     10.163990   205A     10.163995   206A     10.864470  
     207A     11.352858   208A     11.353938   209A     11.353938  
     210A     11.467709   211A     11.467709   212A     12.199567  
     213A     12.199569   214A     12.257495   215A     13.825578  
     216A     14.089968   217A     14.089968   218A     34.870885  

    Beta Occupied:                                                        

       1A    -14.808483     2A     -1.251965     3A     -0.862869  
       4A     -0.862869  

    Beta Virtual:                                                         

       5A     -0.503966     6A     -0.219452     7A     -0.148738  
       8A     -0.148738     9A     -0.098748    10A     -0.098748  
      11A     -0.098058    12A     -0.067872    13A     -0.045449  
      14A     -0.045448    15A     -0.034489    16A     -0.034489  
      17A     -0.030770    18A      0.058308    19A      0.074290  
      20A      0.074290    21A      0.081260    22A      0.095901  
      23A      0.095901    24A      0.099820    25A      0.137396  
      26A      0.137396    27A      0.146297    28A      0.167839  
      29A      0.167839    30A      0.232037    31A      0.240734  
      32A      0.240734    33A      0.279856    34A      0.367190  
      35A      0.395690    36A      0.395690    37A      0.396377  
      38A      0.413391    39A      0.413392    40A      0.455569  
      41A      0.455570    42A      0.463286    43A      0.477490  
      44A      0.519768    45A      0.519769    46A      0.540047  
      47A      0.546235    48A      0.546237    49A      0.564974  
      50A      0.564975    51A      0.598240    52A      0.624533  
      53A      0.624533    54A      0.740503    55A      0.827610  
      56A      0.827610    57A      0.943397    58A      0.945586  
      59A      0.945587    60A      0.947471    61A      0.960814  
      62A      1.040561    63A      1.040563    64A      1.103300  
      65A      1.103300    66A      1.126762    67A      1.147883  
      68A      1.178521    69A      1.252976    70A      1.252976  
      71A      1.276515    72A      1.276519    73A      1.309351  
      74A      1.353876    75A      1.353878    76A      1.433439  
      77A      1.434358    78A      1.434361    79A      1.472892  
      80A      1.492328    81A      1.492329    82A      1.574131  
      83A      1.574133    84A      1.627928    85A      1.641125  
      86A      1.641127    87A      1.686059    88A      1.690045  
      89A      1.720225    90A      1.720227    91A      1.748322  
      92A      1.864749    93A      1.864751    94A      1.902629  
      95A      1.927821    96A      1.927821    97A      2.189800  
      98A      2.317126    99A      2.317129   100A      2.359991  
     101A      2.367936   102A      2.384772   103A      2.384772  
     104A      2.435413   105A      2.435418   106A      2.496246  
     107A      2.496248   108A      2.501282   109A      2.579894  
     110A      2.607556   111A      2.629350   112A      2.629351  
     113A      2.714198   114A      2.714198   115A      2.830589  
     116A      2.830592   117A      2.864174   118A      2.990188  
     119A      2.990192   120A      3.030871   121A      3.163041  
     122A      3.308578   123A      3.331633   124A      3.331641  
     125A      3.544000   126A      3.565941   127A      3.565952  
     128A      3.590277   129A      3.590278   130A      3.625506  
     131A      3.664492   132A      3.706690   133A      3.828363  
     134A      3.828364   135A      4.067892   136A      4.067897  
     137A      4.316868   138A      4.316869   139A      4.412174  
     140A      4.508226   141A      4.508229   142A      4.666582  
     143A      4.666583   144A      4.816919   145A      4.942797  
     146A      6.177892   147A      6.177904   148A      6.230933  
     149A      6.280048   150A      6.280052   151A      6.383372  
     152A      6.661121   153A      6.692665   154A      6.692666  
     155A      6.716970   156A      6.716972   157A      6.847424  
     158A      6.991364   159A      6.991369   160A      7.009769  
     161A      7.131648   162A      7.131655   163A      7.241014  
     164A      7.300695   165A      7.300711   166A      7.508411  
     167A      7.584251   168A      7.595530   169A      7.595532  
     170A      7.781570   171A      7.923084   172A      7.923092  
     173A      7.972601   174A      7.972601   175A      8.138039  
     176A      8.139633   177A      8.139640   178A      8.194114  
     179A      8.235402   180A      8.242755   181A      8.242759  
     182A      8.313725   183A      8.344575   184A      8.528078  
     185A      8.528082   186A      8.657249   187A      8.657255  
     188A      8.705387   189A      8.705390   190A      8.756669  
     191A      8.967834   192A      9.006347   193A      9.131765  
     194A      9.131769   195A      9.281732   196A      9.281732  
     197A      9.373965   198A      9.452340   199A      9.452340  
     200A      9.723811   201A      9.723815   202A      9.935856  
     203A     10.042083   204A     10.179343   205A     10.179348  
     206A     10.882167   207A     11.376338   208A     11.376340  
     209A     11.398767   210A     11.509627   211A     11.509629  
     212A     12.224682   213A     12.224686   214A     12.263753  
     215A     13.847558   216A     14.102736   217A     14.102737  
     218A     34.899332  

    Final Occupation by Irrep:
              A 
    DOCC [     4 ]
    SOCC [     1 ]
    NA   [     5 ]
    NB   [     4 ]

  @DF-UKS Final Energy:   -56.12576253367704

   => Energetics <=

    Nuclear Repulsion Energy =             11.9475631200079544
    One-Electron Energy =                 -95.5311696046864256
    Two-Electron Energy =                  33.2651657599166555
    DFT Exchange-Correlation Energy =      -5.8073218089152281
    Empirical Dispersion Energy =           0.0000000000000000
    VV10 Nonlocal Energy =                  0.0000000000000000
    Total Energy =                        -56.1257625336770403

  UHF NO Occupations:
  HONO-2 :    3  A 1.9995890
  HONO-1 :    4  A 1.9991973
  HONO-0 :    5  A 1.0000000
  LUNO+0 :    6  A 0.0008027
  LUNO+1 :    7  A 0.0004110
  LUNO+2 :    8  A 0.0004110
  LUNO+3 :    9  A 0.0000009


Computation Completed


Properties will be evaluated at   0.000000,   0.000000,   0.000000 [a0]

Properties computed using the SCF density matrix


 Multipole Moments:

 ------------------------------------------------------------------------------------
     Multipole            Electronic (a.u.)      Nuclear  (a.u.)        Total (a.u.)
 ------------------------------------------------------------------------------------

 L = 1.  Multiply by 2.5417464519 to convert [e a0] to [Debye]
 Dipole X            :          0.0000005           -0.0000016           -0.0000011
 Dipole Y            :          0.3447662           -0.8305712           -0.4858050
 Dipole Z            :         -0.0000000            0.0000000           -0.0000000
 Magnitude           :                                                    0.4858050

 ------------------------------------------------------------------------------------

*** tstop() called on cmpsrv002 at Tue Sep 10 17:19:01 2024
Module time:
	user time   =      15.33 seconds =       0.26 minutes
	system time =       0.38 seconds =       0.01 minutes
	total time  =          4 seconds =       0.07 minutes
Total time:
	user time   =      23.85 seconds =       0.40 minutes
	system time =       0.87 seconds =       0.01 minutes
	total time  =          6 seconds =       0.10 minutes

pbe0 energies and IP 

  Num Electrons   Charge     E_int [a.u.]            
-----------------------------------------------------
    N               0   -56.519748 
    N-1             1   -56.125763 
-----------------------------------------------------
    IP                    0.393986   a.u. 
    e_HOMO               -0.280824   a.u. 
    AC-shift              0.113162   a.u. 
-----------------------------------------------------

    Psi4 stopped on: Tuesday, 10 September 2024 05:19PM
    Psi4 wall time for execution: 0:00:06.30

*** Psi4 exiting successfully. Buy a developer a beer!
