
    -----------------------------------------------------------------------
          Psi4: An Open-Source Ab Initio Electronic Structure Package
                               Psi4 1.9.1 release

                         Git: Rev {} zzzzzzz 


    D. G. A. Smith, L. A. Burns, A. C. Simmonett, R. M. Parrish,
    M. C. Schieber, R. Galvelis, P. Kraus, H. Kruse, R. Di Remigio,
    A. Alenaizan, A. M. James, S. Lehtola, J. P. Misiewicz, M. Scheurer,
    R. A. Shaw, J. B. Schriber, Y. Xie, Z. L. Glick, D. A. Sirianni,
    J. S. O'Brien, J. M. Waldrop, A. Kumar, E. G. Hohenstein,
    B. P. Pritchard, B. R. Brooks, H. F. Schaefer III, A. Yu. Sokolov,
    K. Patkowski, A. E. DePrince III, U. Bozkaya, R. A. King,
    F. A. Evangelista, J. M. Turney, T. D. Crawford, C. D. Sherrill,
    J. Chem. Phys. 152(18) 184108 (2020). https://doi.org/10.1063/5.0006002

                            Additional Code Authors
    E. T. Seidl, C. L. Janssen, E. F. Valeev, M. L. Leininger,
    J. F. Gonthier, R. M. Richard, H. R. McAlexander, M. Saitow, X. Wang,
    P. Verma, M. H. Lechner, A. Jiang, S. Behnle, A. G. Heide,
    M. F. Herbst, and D. L. Poole

             Previous Authors, Complete List of Code Contributors,
                       and Citations for Specific Modules
    https://github.com/psi4/psi4/blob/master/codemeta.json
    https://github.com/psi4/psi4/graphs/contributors
    http://psicode.org/psi4manual/master/introduction.html#citing-psifour

    -----------------------------------------------------------------------


    Psi4 started on: Thursday, 26 September 2024 03:25PM

    Process ID: 636575
    Host:       cmpsrv002
    PSIDATADIR: /home/vance/anaconda3/envs/p4env/share/psi4
    Memory:     500.0 MiB
    Threads:    8
    
  ==> Input File <==

--------------------------------------------------------------------------
#charge=0 charge_a=0 charge_b=0 selection_a=1-2 selection_b=3-6 scaling=1.05 benchmark_Eint=-9.617 benchmark_unit=kcal/mol group=XH-N
set_num_threads(4)
memory 8 GB
basis this_basis {
    assign    aug-cc-pVQZ
}

molecule {
     0 1
    --
     0 1
     H        0.00000       -0.31269        0.00000
    Cl       -0.00000        1.03066        0.00000
    --
     0 1
     N        0.00000       -2.12057        0.00000
     H       -0.47318       -2.47958        0.81958
     H       -0.47318       -2.47958       -0.81958
     H        0.94637       -2.47958        0.00000
}

set {
    scf_type                DF
    freeze_core             false
    do_ind_exch_sinf        true
    do_disp_exch_sinf       true
}

nrg = energy('sapt2+dmp2')
--------------------------------------------------------------------------
  Threads set to 4 by Python driver.

  Memory set to   7.451 GiB by Python driver.

Scratch directory: /scratch2/vance/psi4/
  SAPT does not make use of molecular symmetry, further calculations in C1 point group.
   => Loading Basis Set <=

    Name: THIS_BASIS
    Role: ORBITAL
    Keyword: BASIS
    atoms 1, 4-6 entry H          line    40 file /home/vance/anaconda3/envs/p4env/share/psi4/basis/aug-cc-pvqz.gbs 
    atoms 2      entry CL         line  1222 file /home/vance/anaconda3/envs/p4env/share/psi4/basis/aug-cc-pvqz.gbs 
    atoms 3      entry N          line   363 file /home/vance/anaconda3/envs/p4env/share/psi4/basis/aug-cc-pvqz.gbs 

   => Loading Basis Set <=

    Name: THIS_BASIS
    Role: ORBITAL
    Keyword: BASIS
    atoms 1, 4-6 entry H          line    40 file /home/vance/anaconda3/envs/p4env/share/psi4/basis/aug-cc-pvqz.gbs 
    atoms 2      entry CL         line  1222 file /home/vance/anaconda3/envs/p4env/share/psi4/basis/aug-cc-pvqz.gbs 
    atoms 3      entry N          line   363 file /home/vance/anaconda3/envs/p4env/share/psi4/basis/aug-cc-pvqz.gbs 


  //>>>>>>>>>>>>>>>>>>>>>>>>>>>>>>>>>>>//
  //              Dimer HF             //
  //<<<<<<<<<<<<<<<<<<<<<<<<<<<<<<<<<<<//

   => Libint2 <=

    Primary   basis highest AM E, G, H:  6, 6, 3
    Auxiliary basis highest AM E, G, H:  7, 7, 4
    Onebody   basis highest AM E, G, H:  -, -, -
    Solid Harmonics ordering:            Gaussian

*** tstart() called on cmpsrv002
*** at Thu Sep 26 15:25:33 2024

   => Loading Basis Set <=

    Name: THIS_BASIS
    Role: ORBITAL
    Keyword: BASIS
    atoms 1, 4-6 entry H          line    40 file /home/vance/anaconda3/envs/p4env/share/psi4/basis/aug-cc-pvqz.gbs 
    atoms 2      entry CL         line  1222 file /home/vance/anaconda3/envs/p4env/share/psi4/basis/aug-cc-pvqz.gbs 
    atoms 3      entry N          line   363 file /home/vance/anaconda3/envs/p4env/share/psi4/basis/aug-cc-pvqz.gbs 


         ---------------------------------------------------------
                                   SCF
               by Justin Turney, Rob Parrish, Andy Simmonett
                          and Daniel G. A. Smith
                              RHF Reference
                        4 Threads,   7629 MiB Core
         ---------------------------------------------------------

  ==> Geometry <==

    Molecular point group: c1
    Full point group: Cs

    Geometry (in Angstrom), charge = 0, multiplicity = 1:

       Center              X                  Y                   Z               Mass       
    ------------   -----------------  -----------------  -----------------  -----------------
         H           -0.000000190144    -0.285039115064     0.000000000000     1.007825032230
         CL          -0.000000190144     1.058310884936     0.000000000000    34.968852682000
         N           -0.000000190144    -2.092919115064     0.000000000000    14.003074004430
         H           -0.473180190144    -2.451929115064     0.819580000000     1.007825032230
         H           -0.473180190144    -2.451929115064    -0.819580000000     1.007825032230
         H            0.946369809856    -2.451929115064     0.000000000000     1.007825032230

  Running in c1 symmetry.

  Rotational constants: A =      6.22544  B =      0.14034  C =      0.14034 [cm^-1]
  Rotational constants: A = 186633.95025  B =   4207.40693  C =   4207.40665 [MHz]
  Nuclear repulsion =   48.771236343739410

  Charge       = 0
  Multiplicity = 1
  Electrons    = 28
  Nalpha       = 14
  Nbeta        = 14

  ==> Algorithm <==

  SCF Algorithm Type is DF.
  DIIS enabled.
  MOM disabled.
  Fractional occupation disabled.
  Guess Type is SAD.
  Energy threshold   = 1.00e-08
  Density threshold  = 1.00e-08
  Integral threshold = 1.00e-12

  ==> Primary Basis <==

  Basis Set: THIS_BASIS
    Blend: AUG-CC-PVQZ
    Number of shells: 98
    Number of basis functions: 348
    Number of Cartesian functions: 434
    Spherical Harmonics?: true
    Max angular momentum: 4

   => Loading Basis Set <=

    Name: (THIS_BASIS AUX)
    Role: JKFIT
    Keyword: DF_BASIS_SCF
    atoms 1, 4-6 entry H          line    70 file /home/vance/anaconda3/envs/p4env/share/psi4/basis/aug-cc-pvqz-jkfit.gbs 
    atoms 2      entry CL         line   904 file /home/vance/anaconda3/envs/p4env/share/psi4/basis/aug-cc-pvqz-jkfit.gbs 
    atoms 3      entry N          line   248 file /home/vance/anaconda3/envs/p4env/share/psi4/basis/aug-cc-pvqz-jkfit.gbs 

  ==> Integral Setup <==

  ==> DiskDFJK: Density-Fitted J/K Matrices <==

    J tasked:                  Yes
    K tasked:                  Yes
    wK tasked:                  No
    OpenMP threads:              4
    Integrals threads:           4
    Memory [MiB]:             5722
    Algorithm:                Core
    Integral Cache:           SAVE
    Schwarz Cutoff:          1E-12
    Fitting Condition:       1E-10

   => Auxiliary Basis Set <=

  Basis Set: (THIS_BASIS AUX)
    Blend: AUG-CC-PVQZ-JKFIT
    Number of shells: 152
    Number of basis functions: 630
    Number of Cartesian functions: 849
    Spherical Harmonics?: true
    Max angular momentum: 5

  Minimum eigenvalue in the overlap matrix is 1.2417526394E-05.
  Reciprocal condition number of the overlap matrix is 1.0570287131E-06.
    Using symmetric orthogonalization.

  ==> Pre-Iterations <==

  SCF Guess: Superposition of Atomic Densities via on-the-fly atomic UHF (no occupation information).

   -------------------------
    Irrep   Nso     Nmo    
   -------------------------
     A        348     348 
   -------------------------
    Total     348     348
   -------------------------

  ==> Iterations <==

                           Total Energy        Delta E     RMS |[F,P]|

   @DF-RHF iter SAD:  -515.66073795366492   -5.15661e+02   0.00000e+00 
   @DF-RHF iter   1:  -516.24646280064132   -5.85725e-01   1.30463e-03 ADIIS/DIIS
   @DF-RHF iter   2:  -516.32068795831719   -7.42252e-02   6.68366e-04 ADIIS/DIIS
   @DF-RHF iter   3:  -516.34111209733271   -2.04241e-02   9.34454e-05 DIIS
   @DF-RHF iter   4:  -516.34206223856415   -9.50141e-04   3.29444e-05 DIIS
   @DF-RHF iter   5:  -516.34215617742382   -9.39389e-05   7.75585e-06 DIIS
   @DF-RHF iter   6:  -516.34216670256171   -1.05251e-05   1.74204e-06 DIIS
   @DF-RHF iter   7:  -516.34216733851679   -6.35955e-07   5.04564e-07 DIIS
   @DF-RHF iter   8:  -516.34216738185137   -4.33346e-08   1.17300e-07 DIIS
   @DF-RHF iter   9:  -516.34216738373243   -1.88106e-09   2.29379e-08 DIIS
   @DF-RHF iter  10:  -516.34216738381917   -8.67431e-11   4.41386e-09 DIIS
  Energy and wave function converged.


  ==> Post-Iterations <==

    Orbital Energies [Eh]
    ---------------------

    Doubly Occupied:                                                      

       1A   -104.797448     2A    -15.581652     3A    -10.523498  
       4A     -7.990557     5A     -7.989238     6A     -7.989238  
       7A     -1.185693     8A     -1.061695     9A     -0.673234  
      10A     -0.673232    11A     -0.595675    12A     -0.453279  
      13A     -0.432995    14A     -0.432995  

    Virtual:                                                              

      15A      0.017458    16A      0.038246    17A      0.038246  
      18A      0.051082    19A      0.106819    20A      0.111223  
      21A      0.114556    22A      0.114556    23A      0.128521  
      24A      0.128521    25A      0.139562    26A      0.167572  
      27A      0.167572    28A      0.176729    29A      0.196146  
      30A      0.196146    31A      0.262954    32A      0.271361  
      33A      0.275377    34A      0.285967    35A      0.285967  
      36A      0.308173    37A      0.308173    38A      0.312633  
      39A      0.322201    40A      0.322201    41A      0.334373  
      42A      0.361042    43A      0.361042    44A      0.367072  
      45A      0.385078    46A      0.385078    47A      0.428726  
      48A      0.432701    49A      0.432701    50A      0.461434  
      51A      0.461434    52A      0.462866    53A      0.479481  
      54A      0.538654    55A      0.538655    56A      0.600392  
      57A      0.600392    58A      0.622199    59A      0.663849  
      60A      0.673303    61A      0.673303    62A      0.679048  
      63A      0.689072    64A      0.689072    65A      0.716944  
      66A      0.721880    67A      0.721880    68A      0.722314  
      69A      0.755201    70A      0.755201    71A      0.756000  
      72A      0.773184    73A      0.773185    74A      0.782150  
      75A      0.800180    76A      0.800180    77A      0.845921  
      78A      0.860122    79A      0.867988    80A      0.867989  
      81A      0.919390    82A      0.923862    83A      0.923863  
      84A      0.935166    85A      0.935166    86A      0.971886  
      87A      0.977229    88A      0.977229    89A      0.989985  
      90A      1.046257    91A      1.046257    92A      1.078526  
      93A      1.078526    94A      1.081707    95A      1.156931  
      96A      1.246050    97A      1.250621    98A      1.250621  
      99A      1.302526   100A      1.302526   101A      1.319795  
     102A      1.342806   103A      1.387876   104A      1.387876  
     105A      1.400525   106A      1.418773   107A      1.421016  
     108A      1.421017   109A      1.458584   110A      1.538821  
     111A      1.538823   112A      1.545791   113A      1.545792  
     114A      1.565818   115A      1.635683   116A      1.635683  
     117A      1.679632   118A      1.691803   119A      1.691804  
     120A      1.699063   121A      1.719549   122A      1.757107  
     123A      1.783450   124A      1.783450   125A      1.803563  
     126A      1.803564   127A      1.821062   128A      1.821062  
     129A      1.872186   130A      1.883806   131A      1.883806  
     132A      1.900899   133A      1.900899   134A      1.907545  
     135A      1.914198   136A      1.954858   137A      1.954858  
     138A      2.013985   139A      2.013986   140A      2.028507  
     141A      2.040714   142A      2.061830   143A      2.061830  
     144A      2.064787   145A      2.080367   146A      2.080367  
     147A      2.093976   148A      2.096892   149A      2.127426  
     150A      2.158083   151A      2.158083   152A      2.205961  
     153A      2.223327   154A      2.223328   155A      2.234610  
     156A      2.244639   157A      2.244639   158A      2.341227  
     159A      2.341227   160A      2.342549   161A      2.371783  
     162A      2.371783   163A      2.386346   164A      2.442537  
     165A      2.494984   166A      2.529214   167A      2.529214  
     168A      2.608292   169A      2.608295   170A      2.642896  
     171A      2.688977   172A      2.688980   173A      2.773748  
     174A      2.800918   175A      2.800918   176A      2.898475  
     177A      2.909380   178A      2.918398   179A      2.918400  
     180A      3.006870   181A      3.006872   182A      3.013399  
     183A      3.021885   184A      3.021888   185A      3.100776  
     186A      3.132075   187A      3.169443   188A      3.169443  
     189A      3.177108   190A      3.213166   191A      3.213168  
     192A      3.248262   193A      3.248263   194A      3.363200  
     195A      3.363200   196A      3.461889   197A      3.536792  
     198A      3.536792   199A      3.601112   200A      3.635587  
     201A      3.635588   202A      3.664013   203A      3.693575  
     204A      3.748434   205A      3.748435   206A      3.875923  
     207A      3.985669   208A      3.985670   209A      4.036805  
     210A      4.104690   211A      4.126421   212A      4.126424  
     213A      4.188522   214A      4.201538   215A      4.201539  
     216A      4.278396   217A      4.278398   218A      4.288974  
     219A      4.412722   220A      4.412723   221A      4.430078  
     222A      4.487364   223A      4.517718   224A      4.517719  
     225A      4.719351   226A      4.724716   227A      4.724716  
     228A      4.752821   229A      4.754089   230A      4.759623  
     231A      4.759623   232A      4.763865   233A      4.763865  
     234A      4.784198   235A      4.785002   236A      4.832828  
     237A      4.832828   238A      4.947407   239A      4.974598  
     240A      4.974599   241A      5.001325   242A      5.001326  
     243A      5.074974   244A      5.074974   245A      5.087320  
     246A      5.206284   247A      5.206286   248A      5.282732  
     249A      5.382453   250A      5.382453   251A      5.439764  
     252A      5.711695   253A      5.711696   254A      5.754089  
     255A      6.029588   256A      6.695180   257A      6.704427  
     258A      6.715047   259A      6.715049   260A      6.844831  
     261A      6.908461   262A      6.908461   263A      6.972723  
     264A      6.972724   265A      7.181441   266A      7.181441  
     267A      7.313808   268A      7.333597   269A      7.405021  
     270A      7.405025   271A      7.479056   272A      7.546772  
     273A      7.546773   274A      7.651297   275A      7.659353  
     276A      7.795811   277A      7.795820   278A      7.859162  
     279A      7.859164   280A      8.032589   281A      8.089711  
     282A      8.089712   283A      8.197734   284A      8.197740  
     285A      8.293313   286A      8.354434   287A      8.412500  
     288A      8.412502   289A      8.564789   290A      8.564795  
     291A      8.578316   292A      8.641777   293A      8.726794  
     294A      8.726794   295A      8.776323   296A      8.776330  
     297A      8.865400   298A      8.865401   299A      8.944359  
     300A      8.944364   301A      8.946299   302A      8.947277  
     303A      9.012347   304A      9.040704   305A      9.126235  
     306A      9.126239   307A      9.243371   308A      9.398061  
     309A      9.398065   310A      9.406974   311A      9.406974  
     312A      9.587486   313A      9.652653   314A      9.652656  
     315A      9.710178   316A      9.710180   317A      9.710689  
     318A      9.930517   319A      9.930525   320A      9.957693  
     321A     10.107544   322A     10.109891   323A     10.109894  
     324A     10.299168   325A     10.425907   326A     10.425910  
     327A     10.536178   328A     10.549665   329A     10.549671  
     330A     10.839204   331A     10.984771   332A     11.010180  
     333A     11.010183   334A     11.514976   335A     11.907550  
     336A     12.177783   337A     12.177791   338A     12.304151  
     339A     12.355108   340A     12.355123   341A     13.032702  
     342A     13.137793   343A     13.137803   344A     14.939699  
     345A     15.082248   346A     15.082259   347A     26.519863  
     348A     36.823531  

    Final Occupation by Irrep:
              A 
    DOCC [    14 ]
    NA   [    14 ]
    NB   [    14 ]

  @DF-RHF Final Energy:  -516.34216738381917

   => Energetics <=

    Nuclear Repulsion Energy =             48.7712363437394103
    One-Electron Energy =                -809.4659528551072754
    Two-Electron Energy =                 244.3525491275487980
    Total Energy =                       -516.3421673838190600

Computation Completed


Properties will be evaluated at   0.000000,   0.000000,   0.000000 [a0]

Properties computed using the SCF density matrix


 Multipole Moments:

 ------------------------------------------------------------------------------------
     Multipole            Electronic (a.u.)      Nuclear  (a.u.)        Total (a.u.)
 ------------------------------------------------------------------------------------

 L = 1.  Multiply by 2.5417464519 to convert [e a0] to [Debye]
 Dipole X            :         -0.0000058            0.0000088            0.0000030
 Dipole Y            :          6.3705453           -8.1257755           -1.7552302
 Dipole Z            :          0.0000000            0.0000000            0.0000000
 Magnitude           :                                                    1.7552302

 ------------------------------------------------------------------------------------

*** tstop() called on cmpsrv002 at Thu Sep 26 15:25:52 2024
Module time:
	user time   =      28.17 seconds =       0.47 minutes
	system time =       3.58 seconds =       0.06 minutes
	total time  =         19 seconds =       0.32 minutes
Total time:
	user time   =      28.17 seconds =       0.47 minutes
	system time =       3.58 seconds =       0.06 minutes
	total time  =         19 seconds =       0.32 minutes

*** tstart() called on cmpsrv002
*** at Thu Sep 26 15:25:52 2024


  //>>>>>>>>>>>>>>>>>>>>>>>>>>>>>>>>>>>//
  //               DFMP2               //
  //<<<<<<<<<<<<<<<<<<<<<<<<<<<<<<<<<<<//

   => Loading Basis Set <=

    Name: (THIS_BASIS AUX)
    Role: RIFIT
    Keyword: DF_BASIS_MP2
    atoms 1, 4-6 entry H          line    30 file /home/vance/anaconda3/envs/p4env/share/psi4/basis/aug-cc-pvqz-ri.gbs 
    atoms 2      entry CL         line   914 file /home/vance/anaconda3/envs/p4env/share/psi4/basis/aug-cc-pvqz-ri.gbs 
    atoms 3      entry N          line   258 file /home/vance/anaconda3/envs/p4env/share/psi4/basis/aug-cc-pvqz-ri.gbs 

	 --------------------------------------------------------
	                          DF-MP2                         
	      2nd-Order Density-Fitted Moller-Plesset Theory     
	              RMP2 Wavefunction,   4 Threads             
	                                                         
	        Rob Parrish, Justin Turney, Andy Simmonett,      
	           Ed Hohenstein, and C. David Sherrill          
	 --------------------------------------------------------

   => Auxiliary Basis Set <=

  Basis Set: (THIS_BASIS AUX)
    Blend: AUG-CC-PVQZ-RI
    Number of shells: 160
    Number of basis functions: 682
    Number of Cartesian functions: 925
    Spherical Harmonics?: true
    Max angular momentum: 5

	 --------------------------------------------------------
	                 NBF =   348, NAUX =   682
	 --------------------------------------------------------
	   CLASS    FOCC     OCC    AOCC    AVIR     VIR    FVIR
	   PAIRS       0      14      14     334     334       0
	 --------------------------------------------------------

	 Will save fitting metric to file 97.

	-----------------------------------------------------------
	 ==================> DF-MP2 Energies <==================== 
	-----------------------------------------------------------
	 Reference Energy          =    -516.3421673838191737 [Eh]
	 Singles Energy            =      -0.0000000000000000 [Eh]
	 Same-Spin Energy          =      -0.1327453152795988 [Eh]
	 Opposite-Spin Energy      =      -0.4479865493128201 [Eh]
	 Correlation Energy        =      -0.5807318645924189 [Eh]
	 Total Energy              =    -516.9228992484115679 [Eh]
	-----------------------------------------------------------
	 ================> DF-SCS-MP2 Energies <================== 
	-----------------------------------------------------------
	 SCS Same-Spin Scale       =       0.3333333333333333 [-]
	 SCS Opposite-Spin Scale   =       1.2000000000000000 [-]
	 SCS Same-Spin Energy      =      -0.0442484384265329 [Eh]
	 SCS Opposite-Spin Energy  =      -0.5375838591753841 [Eh]
	 SCS Correlation Energy    =      -0.5818322976019170 [Eh]
	 SCS Total Energy          =    -516.9239996814210372 [Eh]
	-----------------------------------------------------------


*** tstop() called on cmpsrv002 at Thu Sep 26 15:25:59 2024
Module time:
	user time   =       7.09 seconds =       0.12 minutes
	system time =       1.19 seconds =       0.02 minutes
	total time  =          7 seconds =       0.12 minutes
Total time:
	user time   =      35.26 seconds =       0.59 minutes
	system time =       4.77 seconds =       0.08 minutes
	total time  =         26 seconds =       0.43 minutes

  //>>>>>>>>>>>>>>>>>>>>>>>>>>>>>>>>>>>//
  //            Monomer A HF           //
  //<<<<<<<<<<<<<<<<<<<<<<<<<<<<<<<<<<<//

   => Libint2 <=

    Primary   basis highest AM E, G, H:  6, 6, 3
    Auxiliary basis highest AM E, G, H:  7, 7, 4
    Onebody   basis highest AM E, G, H:  -, -, -
    Solid Harmonics ordering:            Gaussian

*** tstart() called on cmpsrv002
*** at Thu Sep 26 15:25:59 2024

   => Loading Basis Set <=

    Name: THIS_BASIS
    Role: ORBITAL
    Keyword: BASIS
    atoms 1, 4-6 entry H          line    40 file /home/vance/anaconda3/envs/p4env/share/psi4/basis/aug-cc-pvqz.gbs 
    atoms 2      entry CL         line  1222 file /home/vance/anaconda3/envs/p4env/share/psi4/basis/aug-cc-pvqz.gbs 
    atoms 3      entry N          line   363 file /home/vance/anaconda3/envs/p4env/share/psi4/basis/aug-cc-pvqz.gbs 


         ---------------------------------------------------------
                                   SCF
               by Justin Turney, Rob Parrish, Andy Simmonett
                          and Daniel G. A. Smith
                              RHF Reference
                        4 Threads,   7629 MiB Core
         ---------------------------------------------------------

  ==> Geometry <==

    Molecular point group: c1
    Full point group: Cs

    Geometry (in Angstrom), charge = 0, multiplicity = 1:

       Center              X                  Y                   Z               Mass       
    ------------   -----------------  -----------------  -----------------  -----------------
         H           -0.000000190144    -0.285039115064     0.000000000000     1.007825032230
         CL          -0.000000190144     1.058310884936     0.000000000000    34.968852682000
      Gh(N)          -0.000000190144    -2.092919115064     0.000000000000    14.003074004430
      Gh(H)          -0.473180190144    -2.451929115064     0.819580000000     1.007825032230
      Gh(H)          -0.473180190144    -2.451929115064    -0.819580000000     1.007825032230
      Gh(H)           0.946369809856    -2.451929115064     0.000000000000     1.007825032230

  Running in c1 symmetry.

  Rotational constants: A =      6.22544  B =      0.14034  C =      0.14034 [cm^-1]
  Rotational constants: A = 186633.95025  B =   4207.40693  C =   4207.40665 [MHz]
  Nuclear repulsion =    6.696700473733577

  Charge       = 0
  Multiplicity = 1
  Electrons    = 18
  Nalpha       = 9
  Nbeta        = 9

  ==> Algorithm <==

  SCF Algorithm Type is DF.
  DIIS enabled.
  MOM disabled.
  Fractional occupation disabled.
  Guess Type is SAD.
  Energy threshold   = 1.00e-08
  Density threshold  = 1.00e-08
  Integral threshold = 1.00e-12

  ==> Primary Basis <==

  Basis Set: THIS_BASIS
    Blend: AUG-CC-PVQZ
    Number of shells: 98
    Number of basis functions: 348
    Number of Cartesian functions: 434
    Spherical Harmonics?: true
    Max angular momentum: 4

   => Loading Basis Set <=

    Name: (THIS_BASIS AUX)
    Role: JKFIT
    Keyword: DF_BASIS_SCF
    atoms 1, 4-6 entry H          line    70 file /home/vance/anaconda3/envs/p4env/share/psi4/basis/aug-cc-pvqz-jkfit.gbs 
    atoms 2      entry CL         line   904 file /home/vance/anaconda3/envs/p4env/share/psi4/basis/aug-cc-pvqz-jkfit.gbs 
    atoms 3      entry N          line   248 file /home/vance/anaconda3/envs/p4env/share/psi4/basis/aug-cc-pvqz-jkfit.gbs 

  ==> Integral Setup <==

  ==> DiskDFJK: Density-Fitted J/K Matrices <==

    J tasked:                  Yes
    K tasked:                  Yes
    wK tasked:                  No
    OpenMP threads:              4
    Integrals threads:           4
    Memory [MiB]:             5722
    Algorithm:                Core
    Integral Cache:           LOAD
    Schwarz Cutoff:          1E-12
    Fitting Condition:       1E-10

   => Auxiliary Basis Set <=

  Basis Set: (THIS_BASIS AUX)
    Blend: AUG-CC-PVQZ-JKFIT
    Number of shells: 152
    Number of basis functions: 630
    Number of Cartesian functions: 849
    Spherical Harmonics?: true
    Max angular momentum: 5

  Minimum eigenvalue in the overlap matrix is 1.2417526394E-05.
  Reciprocal condition number of the overlap matrix is 1.0570287131E-06.
    Using symmetric orthogonalization.

  ==> Pre-Iterations <==

  SCF Guess: Superposition of Atomic Densities via on-the-fly atomic UHF (no occupation information).

   -------------------------
    Irrep   Nso     Nmo    
   -------------------------
     A        348     348 
   -------------------------
    Total     348     348
   -------------------------

  ==> Iterations <==

                           Total Energy        Delta E     RMS |[F,P]|

   @DF-RHF iter SAD:  -459.87084648332456   -4.59871e+02   0.00000e+00 
   @DF-RHF iter   1:  -460.08497053988941   -2.14124e-01   5.44953e-04 ADIIS/DIIS
   @DF-RHF iter   2:  -460.10488278619567   -1.99122e-02   2.29913e-04 ADIIS/DIIS
   @DF-RHF iter   3:  -460.10764393970823   -2.76115e-03   4.35646e-05 DIIS
   @DF-RHF iter   4:  -460.10798848828728   -3.44549e-04   1.25058e-05 DIIS
   @DF-RHF iter   5:  -460.10802197471287   -3.34864e-05   1.76222e-06 DIIS
   @DF-RHF iter   6:  -460.10802255399477   -5.79282e-07   3.79040e-07 DIIS
   @DF-RHF iter   7:  -460.10802256842948   -1.44347e-08   8.63923e-08 DIIS
   @DF-RHF iter   8:  -460.10802256959204   -1.16256e-09   1.69041e-08 DIIS
   @DF-RHF iter   9:  -460.10802256963501   -4.29736e-11   1.75936e-09 DIIS
  Energy and wave function converged.


  ==> Post-Iterations <==

    Orbital Energies [Eh]
    ---------------------

    Doubly Occupied:                                                      

       1A   -104.852116     2A    -10.576162     3A     -8.043297  
       4A     -8.041578     5A     -8.041578     6A     -1.105216  
       7A     -0.610906     8A     -0.475371     9A     -0.475371  

    Virtual:                                                              

      10A      0.018731    11A      0.042071    12A      0.042071  
      13A      0.044136    14A      0.084474    15A      0.100234  
      16A      0.105935    17A      0.105935    18A      0.123145  
      19A      0.123145    20A      0.127505    21A      0.162603  
      22A      0.184454    23A      0.184454    24A      0.194376  
      25A      0.211485    26A      0.211485    27A      0.272182  
      28A      0.272182    29A      0.272477    30A      0.282358  
      31A      0.284019    32A      0.286368    33A      0.286368  
      34A      0.307513    35A      0.314560    36A      0.314560  
      37A      0.359098    38A      0.359098    39A      0.359925  
      40A      0.402476    41A      0.402476    42A      0.417888  
      43A      0.448606    44A      0.448607    45A      0.461035  
      46A      0.473770    47A      0.494976    48A      0.494976  
      49A      0.546579    50A      0.602508    51A      0.602508  
      52A      0.625958    53A      0.625958    54A      0.637701  
      55A      0.638049    56A      0.638049    57A      0.642862  
      58A      0.658802    59A      0.658802    60A      0.663007  
      61A      0.663007    62A      0.714845    63A      0.724330  
      64A      0.738190    65A      0.768164    66A      0.768164  
      67A      0.793891    68A      0.795256    69A      0.795256  
      70A      0.824458    71A      0.838013    72A      0.853758  
      73A      0.853758    74A      0.896786    75A      0.896787  
      76A      0.911072    77A      0.935931    78A      0.936371  
      79A      0.936371    80A      0.967611    81A      0.967612  
      82A      0.991404    83A      1.030860    84A      1.030860  
      85A      1.080253    86A      1.090051    87A      1.090051  
      88A      1.095106    89A      1.126941    90A      1.126941  
      91A      1.156737    92A      1.243695    93A      1.253833  
      94A      1.253833    95A      1.272170    96A      1.291246  
      97A      1.291247    98A      1.365663    99A      1.365664  
     100A      1.411508   101A      1.433297   102A      1.433298  
     103A      1.442010   104A      1.520196   105A      1.530078  
     106A      1.561017   107A      1.561018   108A      1.617213  
     109A      1.617213   110A      1.645983   111A      1.687938  
     112A      1.713586   113A      1.720153   114A      1.720153  
     115A      1.727246   116A      1.778446   117A      1.778446  
     118A      1.781718   119A      1.781718   120A      1.847153  
     121A      1.847153   122A      1.864836   123A      1.868768  
     124A      1.868768   125A      1.884812   126A      1.884812  
     127A      1.895218   128A      1.901845   129A      1.960767  
     130A      1.960767   131A      1.988253   132A      1.988253  
     133A      2.001182   134A      2.028278   135A      2.028278  
     136A      2.029502   137A      2.058098   138A      2.066864  
     139A      2.070610   140A      2.070610   141A      2.082307  
     142A      2.143515   143A      2.149842   144A      2.149843  
     145A      2.193366   146A      2.202216   147A      2.202216  
     148A      2.215964   149A      2.237638   150A      2.237638  
     151A      2.258627   152A      2.296705   153A      2.296707  
     154A      2.309818   155A      2.340797   156A      2.340797  
     157A      2.369302   158A      2.390057   159A      2.390058  
     160A      2.416567   161A      2.416568   162A      2.501426  
     163A      2.517068   164A      2.610215   165A      2.610216  
     166A      2.682874   167A      2.682878   168A      2.721413  
     169A      2.774377   170A      2.815408   171A      2.815408  
     172A      2.891575   173A      3.082054   174A      3.082055  
     175A      3.119574   176A      3.119576   177A      3.180809  
     178A      3.199324   179A      3.249376   180A      3.249376  
     181A      3.262142   182A      3.262747   183A      3.262747  
     184A      3.294944   185A      3.309499   186A      3.333285  
     187A      3.333287   188A      3.417147   189A      3.461589  
     190A      3.461590   191A      3.549785   192A      3.549787  
     193A      3.659359   194A      3.659360   195A      3.683301  
     196A      3.776717   197A      3.811305   198A      3.831946  
     199A      3.831947   200A      3.848037   201A      3.899590  
     202A      3.899592   203A      4.017070   204A      4.017071  
     205A      4.092203   206A      4.196414   207A      4.213441  
     208A      4.213442   209A      4.358693   210A      4.358694  
     211A      4.366630   212A      4.383471   213A      4.383471  
     214A      4.422422   215A      4.425772   216A      4.425772  
     217A      4.509852   218A      4.548600   219A      4.548604  
     220A      4.689032   221A      4.689033   222A      4.693774  
     223A      4.710693   224A      4.711598   225A      4.721902  
     226A      4.721902   227A      4.742760   228A      4.743119  
     229A      4.747644   230A      4.747645   231A      4.821507  
     232A      4.821507   233A      4.863891   234A      4.991282  
     235A      4.991282   236A      5.041093   237A      5.041093  
     238A      5.060030   239A      5.147483   240A      5.465305  
     241A      5.470837   242A      5.470840   243A      5.647867  
     244A      5.647868   245A      5.824315   246A      5.824320  
     247A      5.835964   248A      5.848591   249A      5.956191  
     250A      5.956193   251A      6.316959   252A      6.459144  
     253A      6.577470   254A      6.577472   255A      6.656266  
     256A      6.665797   257A      6.690158   258A      6.690160  
     259A      7.110762   260A      7.137482   261A      7.137483  
     262A      7.172840   263A      7.172842   264A      7.268588  
     265A      7.268591   266A      7.455539   267A      7.621655  
     268A      7.744589   269A      7.744590   270A      7.781576  
     271A      8.182226   272A      8.231581   273A      8.233174  
     274A      8.233175   275A      8.272966   276A      8.272966  
     277A      8.301505   278A      8.301517   279A      8.410810  
     280A      8.509881   281A      8.510003   282A      8.510005  
     283A      8.681555   284A      8.681555   285A      8.714193  
     286A      8.714194   287A      8.825004   288A      8.825005  
     289A      8.873866   290A      9.083424   291A      9.083428  
     292A      9.148435   293A      9.191947   294A      9.276527  
     295A      9.276535   296A      9.399795   297A      9.453866  
     298A      9.453868   299A      9.522492   300A      9.561348  
     301A      9.561348   302A      9.585447   303A      9.586433  
     304A      9.660622   305A      9.660623   306A      9.843374  
     307A     10.105754   308A     10.105759   309A     10.193812  
     310A     10.193819   311A     10.201151   312A     10.467477  
     313A     10.550352   314A     10.550360   315A     10.625833  
     316A     10.745091   317A     10.745097   318A     10.857816  
     319A     10.857819   320A     10.885040   321A     11.020224  
     322A     11.374073   323A     11.374075   324A     11.638472  
     325A     12.037907   326A     12.037917   327A     12.128547  
     328A     12.413853   329A     12.552084   330A     12.552099  
     331A     13.174701   332A     13.174711   333A     13.388725  
     334A     14.020084   335A     14.320062   336A     14.494929  
     337A     14.494940   338A     14.706804   339A     14.706808  
     340A     16.062860   341A     16.062872   342A     16.407390  
     343A     18.373637   344A     19.982184   345A     21.871046  
     346A     21.871085   347A     26.481904   348A     96.482247  

    Final Occupation by Irrep:
              A 
    DOCC [     9 ]
    NA   [     9 ]
    NB   [     9 ]

  @DF-RHF Final Energy:  -460.10802256963501

   => Energetics <=

    Nuclear Repulsion Energy =              6.6967004737335767
    One-Electron Energy =                -649.1662585087340176
    Two-Electron Energy =                 182.3615354653654208
    Total Energy =                       -460.1080225696350112

Computation Completed


Properties will be evaluated at   0.000000,   0.000000,   0.000000 [a0]

Properties computed using the SCF density matrix


 Multipole Moments:

 ------------------------------------------------------------------------------------
     Multipole            Electronic (a.u.)      Nuclear  (a.u.)        Total (a.u.)
 ------------------------------------------------------------------------------------

 L = 1.  Multiply by 2.5417464519 to convert [e a0] to [Debye]
 Dipole X            :          0.0000065           -0.0000065            0.0000000
 Dipole Y            :        -33.9588319           33.4599555           -0.4988764
 Dipole Z            :         -0.0000000            0.0000000           -0.0000000
 Magnitude           :                                                    0.4988764

 ------------------------------------------------------------------------------------

*** tstop() called on cmpsrv002 at Thu Sep 26 15:26:12 2024
Module time:
	user time   =      17.58 seconds =       0.29 minutes
	system time =       2.44 seconds =       0.04 minutes
	total time  =         13 seconds =       0.22 minutes
Total time:
	user time   =      52.85 seconds =       0.88 minutes
	system time =       7.21 seconds =       0.12 minutes
	total time  =         39 seconds =       0.65 minutes

*** tstart() called on cmpsrv002
*** at Thu Sep 26 15:26:12 2024


  //>>>>>>>>>>>>>>>>>>>>>>>>>>>>>>>>>>>//
  //               DFMP2               //
  //<<<<<<<<<<<<<<<<<<<<<<<<<<<<<<<<<<<//

   => Loading Basis Set <=

    Name: (THIS_BASIS AUX)
    Role: RIFIT
    Keyword: DF_BASIS_MP2
    atoms 1, 4-6 entry H          line    30 file /home/vance/anaconda3/envs/p4env/share/psi4/basis/aug-cc-pvqz-ri.gbs 
    atoms 2      entry CL         line   914 file /home/vance/anaconda3/envs/p4env/share/psi4/basis/aug-cc-pvqz-ri.gbs 
    atoms 3      entry N          line   258 file /home/vance/anaconda3/envs/p4env/share/psi4/basis/aug-cc-pvqz-ri.gbs 

	 --------------------------------------------------------
	                          DF-MP2                         
	      2nd-Order Density-Fitted Moller-Plesset Theory     
	              RMP2 Wavefunction,   4 Threads             
	                                                         
	        Rob Parrish, Justin Turney, Andy Simmonett,      
	           Ed Hohenstein, and C. David Sherrill          
	 --------------------------------------------------------

   => Auxiliary Basis Set <=

  Basis Set: (THIS_BASIS AUX)
    Blend: AUG-CC-PVQZ-RI
    Number of shells: 160
    Number of basis functions: 682
    Number of Cartesian functions: 925
    Spherical Harmonics?: true
    Max angular momentum: 5

	 --------------------------------------------------------
	                 NBF =   348, NAUX =   682
	 --------------------------------------------------------
	   CLASS    FOCC     OCC    AOCC    AVIR     VIR    FVIR
	   PAIRS       0       9       9     339     339       0
	 --------------------------------------------------------

	 Will attempt to load fitting metric from file 97.

	-----------------------------------------------------------
	 ==================> DF-MP2 Energies <==================== 
	-----------------------------------------------------------
	 Reference Energy          =    -460.1080225696350112 [Eh]
	 Singles Energy            =      -0.0000000000000000 [Eh]
	 Same-Spin Energy          =      -0.0694476699671341 [Eh]
	 Opposite-Spin Energy      =      -0.2204434439293663 [Eh]
	 Correlation Energy        =      -0.2898911138965004 [Eh]
	 Total Energy              =    -460.3979136835314989 [Eh]
	-----------------------------------------------------------
	 ================> DF-SCS-MP2 Energies <================== 
	-----------------------------------------------------------
	 SCS Same-Spin Scale       =       0.3333333333333333 [-]
	 SCS Opposite-Spin Scale   =       1.2000000000000000 [-]
	 SCS Same-Spin Energy      =      -0.0231492233223780 [Eh]
	 SCS Opposite-Spin Energy  =      -0.2645321327152395 [Eh]
	 SCS Correlation Energy    =      -0.2876813560376176 [Eh]
	 SCS Total Energy          =    -460.3957039256726489 [Eh]
	-----------------------------------------------------------


*** tstop() called on cmpsrv002 at Thu Sep 26 15:26:16 2024
Module time:
	user time   =       4.59 seconds =       0.08 minutes
	system time =       0.93 seconds =       0.02 minutes
	total time  =          4 seconds =       0.07 minutes
Total time:
	user time   =      57.47 seconds =       0.96 minutes
	system time =       8.14 seconds =       0.14 minutes
	total time  =         43 seconds =       0.72 minutes

  //>>>>>>>>>>>>>>>>>>>>>>>>>>>>>>>>>>>//
  //            Monomer B HF           //
  //<<<<<<<<<<<<<<<<<<<<<<<<<<<<<<<<<<<//

   => Libint2 <=

    Primary   basis highest AM E, G, H:  6, 6, 3
    Auxiliary basis highest AM E, G, H:  7, 7, 4
    Onebody   basis highest AM E, G, H:  -, -, -
    Solid Harmonics ordering:            Gaussian

*** tstart() called on cmpsrv002
*** at Thu Sep 26 15:26:16 2024

   => Loading Basis Set <=

    Name: THIS_BASIS
    Role: ORBITAL
    Keyword: BASIS
    atoms 1, 4-6 entry H          line    40 file /home/vance/anaconda3/envs/p4env/share/psi4/basis/aug-cc-pvqz.gbs 
    atoms 2      entry CL         line  1222 file /home/vance/anaconda3/envs/p4env/share/psi4/basis/aug-cc-pvqz.gbs 
    atoms 3      entry N          line   363 file /home/vance/anaconda3/envs/p4env/share/psi4/basis/aug-cc-pvqz.gbs 


         ---------------------------------------------------------
                                   SCF
               by Justin Turney, Rob Parrish, Andy Simmonett
                          and Daniel G. A. Smith
                              RHF Reference
                        4 Threads,   7629 MiB Core
         ---------------------------------------------------------

  ==> Geometry <==

    Molecular point group: c1
    Full point group: Cs

    Geometry (in Angstrom), charge = 0, multiplicity = 1:

       Center              X                  Y                   Z               Mass       
    ------------   -----------------  -----------------  -----------------  -----------------
      Gh(H)          -0.000000190144    -0.285039115064     0.000000000000     1.007825032230
      Gh(CL)         -0.000000190144     1.058310884936     0.000000000000    34.968852682000
         N           -0.000000190144    -2.092919115064     0.000000000000    14.003074004430
         H           -0.473180190144    -2.451929115064     0.819580000000     1.007825032230
         H           -0.473180190144    -2.451929115064    -0.819580000000     1.007825032230
         H            0.946369809856    -2.451929115064     0.000000000000     1.007825032230

  Running in c1 symmetry.

  Rotational constants: A =      6.22544  B =      0.14034  C =      0.14034 [cm^-1]
  Rotational constants: A = 186633.95025  B =   4207.40693  C =   4207.40665 [MHz]
  Nuclear repulsion =   11.947542838505765

  Charge       = 0
  Multiplicity = 1
  Electrons    = 10
  Nalpha       = 5
  Nbeta        = 5

  ==> Algorithm <==

  SCF Algorithm Type is DF.
  DIIS enabled.
  MOM disabled.
  Fractional occupation disabled.
  Guess Type is SAD.
  Energy threshold   = 1.00e-08
  Density threshold  = 1.00e-08
  Integral threshold = 1.00e-12

  ==> Primary Basis <==

  Basis Set: THIS_BASIS
    Blend: AUG-CC-PVQZ
    Number of shells: 98
    Number of basis functions: 348
    Number of Cartesian functions: 434
    Spherical Harmonics?: true
    Max angular momentum: 4

   => Loading Basis Set <=

    Name: (THIS_BASIS AUX)
    Role: JKFIT
    Keyword: DF_BASIS_SCF
    atoms 1, 4-6 entry H          line    70 file /home/vance/anaconda3/envs/p4env/share/psi4/basis/aug-cc-pvqz-jkfit.gbs 
    atoms 2      entry CL         line   904 file /home/vance/anaconda3/envs/p4env/share/psi4/basis/aug-cc-pvqz-jkfit.gbs 
    atoms 3      entry N          line   248 file /home/vance/anaconda3/envs/p4env/share/psi4/basis/aug-cc-pvqz-jkfit.gbs 

  ==> Integral Setup <==

  ==> DiskDFJK: Density-Fitted J/K Matrices <==

    J tasked:                  Yes
    K tasked:                  Yes
    wK tasked:                  No
    OpenMP threads:              4
    Integrals threads:           4
    Memory [MiB]:             5722
    Algorithm:                Core
    Integral Cache:           LOAD
    Schwarz Cutoff:          1E-12
    Fitting Condition:       1E-10

   => Auxiliary Basis Set <=

  Basis Set: (THIS_BASIS AUX)
    Blend: AUG-CC-PVQZ-JKFIT
    Number of shells: 152
    Number of basis functions: 630
    Number of Cartesian functions: 849
    Spherical Harmonics?: true
    Max angular momentum: 5

  Minimum eigenvalue in the overlap matrix is 1.2417526394E-05.
  Reciprocal condition number of the overlap matrix is 1.0570287131E-06.
    Using symmetric orthogonalization.

  ==> Pre-Iterations <==

  SCF Guess: Superposition of Atomic Densities via on-the-fly atomic UHF (no occupation information).

   -------------------------
    Irrep   Nso     Nmo    
   -------------------------
     A        348     348 
   -------------------------
    Total     348     348
   -------------------------

  ==> Iterations <==

                           Total Energy        Delta E     RMS |[F,P]|

   @DF-RHF iter SAD:   -55.64205534016290   -5.56421e+01   0.00000e+00 
   @DF-RHF iter   1:   -56.12628144298076   -4.84226e-01   1.34284e-03 ADIIS/DIIS
   @DF-RHF iter   2:   -56.19508537527069   -6.88039e-02   7.78517e-04 ADIIS/DIIS
   @DF-RHF iter   3:   -56.22332963517417   -2.82443e-02   7.07505e-05 DIIS
   @DF-RHF iter   4:   -56.22396641714625   -6.36782e-04   1.32166e-05 DIIS
   @DF-RHF iter   5:   -56.22398762757430   -2.12104e-05   2.45519e-06 DIIS
   @DF-RHF iter   6:   -56.22398886836565   -1.24079e-06   6.41606e-07 DIIS
   @DF-RHF iter   7:   -56.22398895333973   -8.49741e-08   1.41538e-07 DIIS
   @DF-RHF iter   8:   -56.22398895767427   -4.33453e-09   2.10206e-08 DIIS
   @DF-RHF iter   9:   -56.22398895776972   -9.54543e-11   5.62524e-09 DIIS
  Energy and wave function converged.


  ==> Post-Iterations <==

    Orbital Energies [Eh]
    ---------------------

    Doubly Occupied:                                                      

       1A    -15.539187     2A     -1.139719     3A     -0.630908  
       4A     -0.630905     5A     -0.425448  

    Virtual:                                                              

       6A      0.025217     7A      0.041717     8A      0.043369  
       9A      0.043370    10A      0.096008    11A      0.096008  
      12A      0.100681    13A      0.117790    14A      0.135534  
      15A      0.138466    16A      0.138466    17A      0.148352  
      18A      0.181887    19A      0.181888    20A      0.211536  
      21A      0.211536    22A      0.269856    23A      0.283119  
      24A      0.290637    25A      0.294606    26A      0.294606  
      27A      0.304705    28A      0.304705    29A      0.320742  
      30A      0.324925    31A      0.324925    32A      0.330846  
      33A      0.353837    34A      0.368470    35A      0.368470  
      36A      0.394561    37A      0.394562    38A      0.399710  
      39A      0.447326    40A      0.447326    41A      0.465314  
      42A      0.473378    43A      0.473378    44A      0.549612  
      45A      0.549612    46A      0.555008    47A      0.563643  
      48A      0.563643    49A      0.606801    50A      0.632010  
      51A      0.698801    52A      0.715746    53A      0.728638  
      54A      0.728639    55A      0.734656    56A      0.742520  
      57A      0.750414    58A      0.750414    59A      0.784303  
      60A      0.790914    61A      0.790915    62A      0.815687  
      63A      0.815688    64A      0.847703    65A      0.847704  
      66A      0.865453    67A      0.879797    68A      0.879797  
      69A      0.879898    70A      0.923594    71A      0.924897  
      72A      0.924897    73A      0.967094    74A      0.967094  
      75A      0.972964    76A      1.013949    77A      1.013949  
      78A      1.029924    79A      1.036139    80A      1.036139  
      81A      1.073089    82A      1.078072    83A      1.078073  
      84A      1.109677    85A      1.109677    86A      1.143527  
      87A      1.168732    88A      1.168732    89A      1.169148  
      90A      1.336242    91A      1.361571    92A      1.361571  
      93A      1.373616    94A      1.389137    95A      1.389138  
      96A      1.407992    97A      1.442813    98A      1.451692  
      99A      1.451693   100A      1.487734   101A      1.497543  
     102A      1.560272   103A      1.560273   104A      1.593258  
     105A      1.616296   106A      1.616297   107A      1.701483  
     108A      1.701484   109A      1.719053   110A      1.744021  
     111A      1.744021   112A      1.745733   113A      1.752856  
     114A      1.787975   115A      1.787976   116A      1.817756  
     117A      1.862211   118A      1.862212   119A      1.913961  
     120A      1.913963   121A      1.917815   122A      1.955249  
     123A      1.955249   124A      1.960189   125A      1.992595  
     126A      1.996603   127A      1.996604   128A      2.062721  
     129A      2.088062   130A      2.088062   131A      2.114345  
     132A      2.129294   133A      2.129294   134A      2.189999  
     135A      2.225197   136A      2.225198   137A      2.238103  
     138A      2.238104   139A      2.251662   140A      2.271779  
     141A      2.271779   142A      2.271914   143A      2.344844  
     144A      2.359372   145A      2.380226   146A      2.380227  
     147A      2.384018   148A      2.451264   149A      2.454891  
     150A      2.454891   151A      2.492698   152A      2.499329  
     153A      2.499330   154A      2.519694   155A      2.530162  
     156A      2.530162   157A      2.559120   158A      2.671995  
     159A      2.671996   160A      2.703080   161A      2.741060  
     162A      2.741062   163A      2.910625   164A      2.910626  
     165A      2.934587   166A      2.955537   167A      2.955537  
     168A      2.970060   169A      2.970062   170A      2.987033  
     171A      3.033443   172A      3.080286   173A      3.083025  
     174A      3.083027   175A      3.113008   176A      3.113010  
     177A      3.142337   178A      3.170205   179A      3.248087  
     180A      3.248088   181A      3.289826   182A      3.320797  
     183A      3.320798   184A      3.340484   185A      3.340485  
     186A      3.415230   187A      3.523914   188A      3.523914  
     189A      3.549654   190A      3.549655   191A      3.559146  
     192A      3.635373   193A      3.635374   194A      3.702107  
     195A      3.727927   196A      3.765805   197A      3.765805  
     198A      3.870523   199A      3.966783   200A      3.966783  
     201A      4.107692   202A      4.139464   203A      4.139468  
     204A      4.153549   205A      4.231846   206A      4.261049  
     207A      4.272723   208A      4.272725   209A      4.370393  
     210A      4.370393   211A      4.464676   212A      4.498565  
     213A      4.498568   214A      4.585398   215A      4.726569  
     216A      4.726574   217A      4.856993   218A      4.856993  
     219A      5.017516   220A      5.017516   221A      5.022226  
     222A      5.171127   223A      5.241838   224A      5.245273  
     225A      5.245275   226A      5.429744   227A      5.429744  
     228A      5.433478   229A      5.433478   230A      5.458623  
     231A      5.469080   232A      5.487803   233A      5.593313  
     234A      5.593313   235A      5.746470   236A      5.994205  
     237A      5.994206   238A      6.105673   239A      6.267668  
     240A      6.269720   241A      6.279063   242A      6.279063  
     243A      6.370459   244A      6.370459   245A      6.801653  
     246A      6.877807   247A      6.951958   248A      6.951961  
     249A      7.004359   250A      7.004362   251A      7.020835  
     252A      7.034043   253A      7.373154   254A      7.380492  
     255A      7.443618   256A      7.443622   257A      7.528208  
     258A      7.528209   259A      7.651680   260A      7.651681  
     261A      7.686180   262A      7.691208   263A      7.691209  
     264A      7.698418   265A      7.791012   266A      7.791014  
     267A      7.807533   268A      7.848895   269A      7.848900  
     270A      8.010404   271A      8.010408   272A      8.130647  
     273A      8.130647   274A      8.145300   275A      8.234760  
     276A      8.234761   277A      8.327182   278A      8.441685  
     279A      8.462376   280A      8.462378   281A      8.614251  
     282A      8.637210   283A      8.637214   284A      8.673244  
     285A      8.834371   286A      8.834372   287A      8.874340  
     288A      8.874343   289A      8.915527   290A      8.915527  
     291A      8.981252   292A      8.988055   293A      9.051221  
     294A      9.095636   295A      9.184431   296A      9.205098  
     297A      9.205101   298A      9.336972   299A      9.336973  
     300A      9.371303   301A      9.371308   302A      9.484743  
     303A      9.484746   304A      9.572913   305A      9.698202  
     306A      9.719293   307A      9.719297   308A      9.750190  
     309A      9.858715   310A      9.858718   311A      9.953098  
     312A     10.024975   313A     10.024981   314A     10.132371  
     315A     10.132373   316A     10.146219   317A     10.287112  
     318A     10.287113   319A     10.506062   320A     10.506063  
     321A     10.564851   322A     10.610953   323A     10.610960  
     324A     10.798712   325A     10.882112   326A     11.048700  
     327A     11.054543   328A     11.054546   329A     11.519987  
     330A     11.991712   331A     12.219723   332A     12.219731  
     333A     12.347883   334A     12.401887   335A     12.401902  
     336A     13.072615   337A     13.180192   338A     13.180202  
     339A     13.398691   340A     14.996136   341A     15.123121  
     342A     15.123133   343A     31.116649   344A     31.116649  
     345A     31.405833   346A     36.854130   347A     43.121238  
     348A    160.422935  

    Final Occupation by Irrep:
              A 
    DOCC [     5 ]
    NA   [     5 ]
    NB   [     5 ]

  @DF-RHF Final Energy:   -56.22398895776972

   => Energetics <=

    Nuclear Repulsion Energy =             11.9475428385057647
    One-Electron Energy =                 -99.6107294462343020
    Two-Electron Energy =                  31.4391976499588139
    Total Energy =                        -56.2239889577697198

Computation Completed


Properties will be evaluated at   0.000000,   0.000000,   0.000000 [a0]

Properties computed using the SCF density matrix


 Multipole Moments:

 ------------------------------------------------------------------------------------
     Multipole            Electronic (a.u.)      Nuclear  (a.u.)        Total (a.u.)
 ------------------------------------------------------------------------------------

 L = 1.  Multiply by 2.5417464519 to convert [e a0] to [Debye]
 Dipole X            :         -0.0000127            0.0000153            0.0000026
 Dipole Y            :         40.9792887          -41.5857310           -0.6064423
 Dipole Z            :          0.0000000            0.0000000            0.0000000
 Magnitude           :                                                    0.6064423

 ------------------------------------------------------------------------------------

*** tstop() called on cmpsrv002 at Thu Sep 26 15:26:25 2024
Module time:
	user time   =      17.27 seconds =       0.29 minutes
	system time =       1.39 seconds =       0.02 minutes
	total time  =          9 seconds =       0.15 minutes
Total time:
	user time   =      74.75 seconds =       1.25 minutes
	system time =       9.53 seconds =       0.16 minutes
	total time  =         52 seconds =       0.87 minutes

*** tstart() called on cmpsrv002
*** at Thu Sep 26 15:26:25 2024


  //>>>>>>>>>>>>>>>>>>>>>>>>>>>>>>>>>>>//
  //               DFMP2               //
  //<<<<<<<<<<<<<<<<<<<<<<<<<<<<<<<<<<<//

   => Loading Basis Set <=

    Name: (THIS_BASIS AUX)
    Role: RIFIT
    Keyword: DF_BASIS_MP2
    atoms 1, 4-6 entry H          line    30 file /home/vance/anaconda3/envs/p4env/share/psi4/basis/aug-cc-pvqz-ri.gbs 
    atoms 2      entry CL         line   914 file /home/vance/anaconda3/envs/p4env/share/psi4/basis/aug-cc-pvqz-ri.gbs 
    atoms 3      entry N          line   258 file /home/vance/anaconda3/envs/p4env/share/psi4/basis/aug-cc-pvqz-ri.gbs 

	 --------------------------------------------------------
	                          DF-MP2                         
	      2nd-Order Density-Fitted Moller-Plesset Theory     
	              RMP2 Wavefunction,   4 Threads             
	                                                         
	        Rob Parrish, Justin Turney, Andy Simmonett,      
	           Ed Hohenstein, and C. David Sherrill          
	 --------------------------------------------------------

   => Auxiliary Basis Set <=

  Basis Set: (THIS_BASIS AUX)
    Blend: AUG-CC-PVQZ-RI
    Number of shells: 160
    Number of basis functions: 682
    Number of Cartesian functions: 925
    Spherical Harmonics?: true
    Max angular momentum: 5

	 --------------------------------------------------------
	                 NBF =   348, NAUX =   682
	 --------------------------------------------------------
	   CLASS    FOCC     OCC    AOCC    AVIR     VIR    FVIR
	   PAIRS       0       5       5     343     343       0
	 --------------------------------------------------------

	 Will attempt to load fitting metric from file 97.

	-----------------------------------------------------------
	 ==================> DF-MP2 Energies <==================== 
	-----------------------------------------------------------
	 Reference Energy          =     -56.2239889577697198 [Eh]
	 Singles Energy            =      -0.0000000000000000 [Eh]
	 Same-Spin Energy          =      -0.0594336818252398 [Eh]
	 Opposite-Spin Energy      =      -0.2250886860437967 [Eh]
	 Correlation Energy        =      -0.2845223678690366 [Eh]
	 Total Energy              =     -56.5085113256387572 [Eh]
	-----------------------------------------------------------
	 ================> DF-SCS-MP2 Energies <================== 
	-----------------------------------------------------------
	 SCS Same-Spin Scale       =       0.3333333333333333 [-]
	 SCS Opposite-Spin Scale   =       1.2000000000000000 [-]
	 SCS Same-Spin Energy      =      -0.0198112272750799 [Eh]
	 SCS Opposite-Spin Energy  =      -0.2701064232525560 [Eh]
	 SCS Correlation Energy    =      -0.2899176505276360 [Eh]
	 SCS Total Energy          =     -56.5139066082973542 [Eh]
	-----------------------------------------------------------


*** tstop() called on cmpsrv002 at Thu Sep 26 15:26:27 2024
Module time:
	user time   =       4.28 seconds =       0.07 minutes
	system time =       0.68 seconds =       0.01 minutes
	total time  =          2 seconds =       0.03 minutes
Total time:
	user time   =      79.03 seconds =       1.32 minutes
	system time =      10.21 seconds =       0.17 minutes
	total time  =         54 seconds =       0.90 minutes
  Constructing Basis Sets for SAPT...

   => Loading Basis Set <=

    Name: (THIS_BASIS AUX)
    Role: RIFIT
    Keyword: DF_BASIS_SAPT
    atoms 1, 4-6 entry H          line    30 file /home/vance/anaconda3/envs/p4env/share/psi4/basis/aug-cc-pvqz-ri.gbs 
    atoms 2      entry CL         line   914 file /home/vance/anaconda3/envs/p4env/share/psi4/basis/aug-cc-pvqz-ri.gbs 
    atoms 3      entry N          line   258 file /home/vance/anaconda3/envs/p4env/share/psi4/basis/aug-cc-pvqz-ri.gbs 

   => Loading Basis Set <=

    Name: (THIS_BASIS AUX)
    Role: JKFIT
    Keyword: DF_BASIS_ELST
    atoms 1, 4-6 entry H          line    70 file /home/vance/anaconda3/envs/p4env/share/psi4/basis/aug-cc-pvqz-jkfit.gbs 
    atoms 2      entry CL         line   904 file /home/vance/anaconda3/envs/p4env/share/psi4/basis/aug-cc-pvqz-jkfit.gbs 
    atoms 3      entry N          line   248 file /home/vance/anaconda3/envs/p4env/share/psi4/basis/aug-cc-pvqz-jkfit.gbs 


  //>>>>>>>>>>>>>>>>>>>>>>>>>>>>>>>>>>>//
  //             SAPT2+DMP2            //
  //<<<<<<<<<<<<<<<<<<<<<<<<<<<<<<<<<<<//


*** tstart() called on cmpsrv002
*** at Thu Sep 26 15:26:27 2024

        SAPT2+  
    Ed Hohenstein
     6 June 2009

      Orbital Information
  --------------------------
    NSO        =       348
    NMO        =       348
    NRI        =       682
    NOCC A     =         9
    NOCC B     =         5
    FOCC A     =         0
    FOCC B     =         0
    NVIR A     =       339
    NVIR B     =       343

    Estimated memory usage: 870.6 MB

    Natural Orbital Cutoff:   1.000E-06
    Disp(T3) Truncation:            Yes
    CCD (vv|vv) Truncation:         Yes
    MBPT T2 Truncation:             Yes

    Monomer A: 227 virtual orbitals dropped
    Monomer B: 176 virtual orbitals dropped

    Elst10,r            =    -0.028709999356 [Eh]
    Exch10 (S^2)        =     0.033773002989 [Eh]
    Exch10              =     0.034680707055 [Eh]
    Ind20,r (A<-B)      =    -0.004789404756 [Eh]
    Ind20,r (B<-A)      =    -0.013041916941 [Eh]
    Ind20,r             =    -0.017831321697 [Eh]
    Exch-Ind20,r (A<-B) =     0.002908610882 [Eh]
    Exch-Ind20,r (B<-A) =     0.007479916705 [Eh]
    Exch-Ind20,r        =     0.010388527587 [Eh]
    Disp20              =    -0.010505061344 [Eh]
    Disp20 (NO)         =    -0.009048400146 [Eh]
    Exch-Disp20         =     0.002280441343 [Eh]
    Elst12,r            =     0.000543473886 [Eh]
    Exch11              =     0.001624559532 [Eh]
    Exch12              =    -0.000239971153 [Eh]
    Ind22               =    -0.000831823267 [Eh]
    Disp21              =     0.000701587015 [Eh]
    Disp22 (SDQ)        =     0.000547666691 [Eh]

    (i =   1 of   5)         22 seconds
    (i =   2 of   5)         46 seconds
    (i =   3 of   5)         65 seconds
    (i =   4 of   5)         80 seconds
    (i =   5 of   5)         97 seconds

    Disp220 (T)         =    -0.000702187813 [Eh]

    (i =   1 of   9)         17 seconds
    (i =   2 of   9)         34 seconds
    (i =   3 of   9)         52 seconds
    (i =   4 of   9)         67 seconds
    (i =   5 of   9)         82 seconds
    (i =   6 of   9)         97 seconds
    (i =   7 of   9)        114 seconds
    (i =   8 of   9)        127 seconds
    (i =   9 of   9)        137 seconds

    Disp202 (T)         =    -0.000685810060 [Eh]

    Disp22 (T)          =    -0.001387997872 [Eh]

    Est. Disp220 (T)    =    -0.000815229867 [Eh]
    Est. Disp202 (T)    =    -0.000796215533 [Eh]

    Est. Disp22 (T)     =    -0.001611445400 [Eh]

    SAPT Results 
  --------------------------------------------------------------------------------------------------------
    Electrostatics                -28.16652547 [mEh]     -17.67476158 [kcal/mol]     -73.95120244 [kJ/mol]
      Elst10,r                    -28.70999936 [mEh]     -18.01579659 [kcal/mol]     -75.37809293 [kJ/mol]
      Elst12,r                      0.54347389 [mEh]       0.34103501 [kcal/mol]       1.42689049 [kJ/mol]

    Exchange                       36.06529543 [mEh]      22.63131456 [kcal/mol]      94.68942012 [kJ/mol]
      Exch10                       34.68070706 [mEh]      21.76247223 [kcal/mol]      91.05418383 [kJ/mol]
      Exch10(S^2)                  33.77300299 [mEh]      21.19287933 [kcal/mol]      88.67100713 [kJ/mol]
      Exch11(S^2)                   1.62455953 [mEh]       1.01942650 [kcal/mol]       4.26528046 [kJ/mol]
      Exch12(S^2)                  -0.23997115 [mEh]      -0.15058417 [kcal/mol]      -0.63004417 [kJ/mol]

    Induction                     -16.14838920 [mEh]     -10.13326721 [kcal/mol]     -42.39759001 [kJ/mol]
      Ind20,r                     -17.83132170 [mEh]     -11.18932330 [kcal/mol]     -46.81612867 [kJ/mol]
      Ind22                        -0.83182327 [mEh]      -0.52197698 [kcal/mol]      -2.18395169 [kJ/mol]
      Exch-Ind20,r                 10.38852759 [mEh]       6.51889948 [kcal/mol]      27.27507542 [kJ/mol]
      Exch-Ind22                    0.48462022 [mEh]       0.30410378 [kcal/mol]       1.27237020 [kJ/mol]
      delta HF,r (2)               -8.68377000 [mEh]      -5.44914794 [kcal/mol]     -22.79923500 [kJ/mol]
      delta MP2,r (2)               0.32537796 [mEh]       0.20417775 [kcal/mol]       0.85427972 [kJ/mol]

    Dispersion                     -8.58681170 [mEh]      -5.38830569 [kcal/mol]     -22.54467100 [kJ/mol]
      Disp20                      -10.50506134 [mEh]      -6.59202552 [kcal/mol]     -27.58103476 [kJ/mol]
      Disp21                        0.70158702 [mEh]       0.44025250 [kcal/mol]       1.84201645 [kJ/mol]
      Disp22 (SDQ)                  0.54766669 [mEh]       0.34366604 [kcal/mol]       1.43789870 [kJ/mol]
      Disp22 (T)                   -1.38799787 [mEh]      -0.87098181 [kcal/mol]      -3.64418791 [kJ/mol]
      Est. Disp22 (T)              -1.61144540 [mEh]      -1.01119726 [kcal/mol]      -4.23084931 [kJ/mol]
      Exch-Disp20                   2.28044134 [mEh]       1.43099855 [kcal/mol]       5.98729792 [kJ/mol]

  Total HF                        -10.15585641 [mEh]      -6.37289611 [kcal/mol]     -26.66419734 [kJ/mol]
  Total SAPT0                     -18.38047642 [mEh]     -11.53392308 [kcal/mol]     -48.25793418 [kJ/mol]
  Total SAPT2                     -16.79961720 [mEh]     -10.54191895 [kcal/mol]     -44.10738889 [kJ/mol]
  Total SAPT2+                    -17.16180890 [mEh]     -10.76919767 [kcal/mol]     -45.05832305 [kJ/mol]
  Total SAPT2+dMP2                -16.83643094 [mEh]     -10.56501992 [kcal/mol]     -44.20404333 [kJ/mol]

  Special recipe for scaled SAPT0 (see Manual):
    Electrostatics sSAPT0         -28.70999936 [mEh]     -18.01579659 [kcal/mol]     -75.37809293 [kJ/mol]
    Exchange sSAPT0                34.68070706 [mEh]      21.76247223 [kcal/mol]      91.05418383 [kJ/mol]
    Induction sSAPT0              -15.26622446 [mEh]      -9.57970048 [kcal/mol]     -40.08146679 [kJ/mol]
    Dispersion sSAPT0              -8.03576223 [mEh]      -5.04251693 [kcal/mol]     -21.09789084 [kJ/mol]
  Total sSAPT0                    -17.33127899 [mEh]     -10.87554176 [kcal/mol]     -45.50326673 [kJ/mol]
  --------------------------------------------------------------------------------------------------------

*** tstop() called on cmpsrv002 at Thu Sep 26 15:43:45 2024
Module time:
	user time   =    1145.64 seconds =      19.09 minutes
	system time =      91.58 seconds =       1.53 minutes
	total time  =       1038 seconds =      17.30 minutes
Total time:
	user time   =    1224.87 seconds =      20.41 minutes
	system time =     101.80 seconds =       1.70 minutes
	total time  =       1092 seconds =      18.20 minutes

    Psi4 stopped on: Thursday, 26 September 2024 03:43PM
    Psi4 wall time for execution: 0:18:12.65

*** Psi4 exiting successfully. Buy a developer a beer!
