
    -----------------------------------------------------------------------
          Psi4: An Open-Source Ab Initio Electronic Structure Package
                               Psi4 1.9.1 release

                         Git: Rev {} zzzzzzz 


    D. G. A. Smith, L. A. Burns, A. C. Simmonett, R. M. Parrish,
    M. C. Schieber, R. Galvelis, P. Kraus, H. Kruse, R. Di Remigio,
    A. Alenaizan, A. M. James, S. Lehtola, J. P. Misiewicz, M. Scheurer,
    R. A. Shaw, J. B. Schriber, Y. Xie, Z. L. Glick, D. A. Sirianni,
    J. S. O'Brien, J. M. Waldrop, A. Kumar, E. G. Hohenstein,
    B. P. Pritchard, B. R. Brooks, H. F. Schaefer III, A. Yu. Sokolov,
    K. Patkowski, A. E. DePrince III, U. Bozkaya, R. A. King,
    F. A. Evangelista, J. M. Turney, T. D. Crawford, C. D. Sherrill,
    J. Chem. Phys. 152(18) 184108 (2020). https://doi.org/10.1063/5.0006002

                            Additional Code Authors
    E. T. Seidl, C. L. Janssen, E. F. Valeev, M. L. Leininger,
    J. F. Gonthier, R. M. Richard, H. R. McAlexander, M. Saitow, X. Wang,
    P. Verma, M. H. Lechner, A. Jiang, S. Behnle, A. G. Heide,
    M. F. Herbst, and D. L. Poole

             Previous Authors, Complete List of Code Contributors,
                       and Citations for Specific Modules
    https://github.com/psi4/psi4/blob/master/codemeta.json
    https://github.com/psi4/psi4/graphs/contributors
    http://psicode.org/psi4manual/master/introduction.html#citing-psifour

    -----------------------------------------------------------------------


    Psi4 started on: Thursday, 26 September 2024 03:25PM

    Process ID: 636577
    Host:       cmpsrv002
    PSIDATADIR: /home/vance/anaconda3/envs/p4env/share/psi4
    Memory:     500.0 MiB
    Threads:    8
    
  ==> Input File <==

--------------------------------------------------------------------------
#charge=0 charge_a=0 charge_b=0 selection_a=1-2 selection_b=3-6 scaling=1.25 benchmark_Eint=-7.888 benchmark_unit=kcal/mol group=XH-N
set_num_threads(4)
memory 8 GB
basis this_basis {
    assign    aug-cc-pVQZ
}

molecule {
     0 1
    --
     0 1
     H        0.00000       -0.31269        0.00000
    Cl       -0.00000        1.03066        0.00000
    --
     0 1
     N        0.00000       -2.46493        0.00000
     H       -0.47318       -2.82394        0.81958
     H       -0.47318       -2.82394       -0.81958
     H        0.94637       -2.82394        0.00000
}

set {
    scf_type                DF
    freeze_core             false
    do_ind_exch_sinf        true
    do_disp_exch_sinf       true
}

nrg = energy('sapt2+dmp2')
--------------------------------------------------------------------------
  Threads set to 4 by Python driver.

  Memory set to   7.451 GiB by Python driver.

Scratch directory: /scratch2/vance/psi4/
  SAPT does not make use of molecular symmetry, further calculations in C1 point group.
   => Loading Basis Set <=

    Name: THIS_BASIS
    Role: ORBITAL
    Keyword: BASIS
    atoms 1, 4-6 entry H          line    40 file /home/vance/anaconda3/envs/p4env/share/psi4/basis/aug-cc-pvqz.gbs 
    atoms 2      entry CL         line  1222 file /home/vance/anaconda3/envs/p4env/share/psi4/basis/aug-cc-pvqz.gbs 
    atoms 3      entry N          line   363 file /home/vance/anaconda3/envs/p4env/share/psi4/basis/aug-cc-pvqz.gbs 

   => Loading Basis Set <=

    Name: THIS_BASIS
    Role: ORBITAL
    Keyword: BASIS
    atoms 1, 4-6 entry H          line    40 file /home/vance/anaconda3/envs/p4env/share/psi4/basis/aug-cc-pvqz.gbs 
    atoms 2      entry CL         line  1222 file /home/vance/anaconda3/envs/p4env/share/psi4/basis/aug-cc-pvqz.gbs 
    atoms 3      entry N          line   363 file /home/vance/anaconda3/envs/p4env/share/psi4/basis/aug-cc-pvqz.gbs 


  //>>>>>>>>>>>>>>>>>>>>>>>>>>>>>>>>>>>//
  //              Dimer HF             //
  //<<<<<<<<<<<<<<<<<<<<<<<<<<<<<<<<<<<//

   => Libint2 <=

    Primary   basis highest AM E, G, H:  6, 6, 3
    Auxiliary basis highest AM E, G, H:  7, 7, 4
    Onebody   basis highest AM E, G, H:  -, -, -
    Solid Harmonics ordering:            Gaussian

*** tstart() called on cmpsrv002
*** at Thu Sep 26 15:25:33 2024

   => Loading Basis Set <=

    Name: THIS_BASIS
    Role: ORBITAL
    Keyword: BASIS
    atoms 1, 4-6 entry H          line    40 file /home/vance/anaconda3/envs/p4env/share/psi4/basis/aug-cc-pvqz.gbs 
    atoms 2      entry CL         line  1222 file /home/vance/anaconda3/envs/p4env/share/psi4/basis/aug-cc-pvqz.gbs 
    atoms 3      entry N          line   363 file /home/vance/anaconda3/envs/p4env/share/psi4/basis/aug-cc-pvqz.gbs 


         ---------------------------------------------------------
                                   SCF
               by Justin Turney, Rob Parrish, Andy Simmonett
                          and Daniel G. A. Smith
                              RHF Reference
                        4 Threads,   7629 MiB Core
         ---------------------------------------------------------

  ==> Geometry <==

    Molecular point group: c1
    Full point group: Cs

    Geometry (in Angstrom), charge = 0, multiplicity = 1:

       Center              X                  Y                   Z               Mass       
    ------------   -----------------  -----------------  -----------------  -----------------
         H           -0.000000190144    -0.174418256660     0.000000000000     1.007825032230
         CL          -0.000000190144     1.168931743340     0.000000000000    34.968852682000
         N           -0.000000190144    -2.326658256660     0.000000000000    14.003074004430
         H           -0.473180190144    -2.685668256660     0.819580000000     1.007825032230
         H           -0.473180190144    -2.685668256660    -0.819580000000     1.007825032230
         H            0.946369809856    -2.685668256660     0.000000000000     1.007825032230

  Running in c1 symmetry.

  Rotational constants: A =      6.22544  B =      0.11485  C =      0.11485 [cm^-1]
  Rotational constants: A = 186633.95025  B =   3443.17056  C =   3443.17037 [MHz]
  Nuclear repulsion =   45.771212075166105

  Charge       = 0
  Multiplicity = 1
  Electrons    = 28
  Nalpha       = 14
  Nbeta        = 14

  ==> Algorithm <==

  SCF Algorithm Type is DF.
  DIIS enabled.
  MOM disabled.
  Fractional occupation disabled.
  Guess Type is SAD.
  Energy threshold   = 1.00e-08
  Density threshold  = 1.00e-08
  Integral threshold = 1.00e-12

  ==> Primary Basis <==

  Basis Set: THIS_BASIS
    Blend: AUG-CC-PVQZ
    Number of shells: 98
    Number of basis functions: 348
    Number of Cartesian functions: 434
    Spherical Harmonics?: true
    Max angular momentum: 4

   => Loading Basis Set <=

    Name: (THIS_BASIS AUX)
    Role: JKFIT
    Keyword: DF_BASIS_SCF
    atoms 1, 4-6 entry H          line    70 file /home/vance/anaconda3/envs/p4env/share/psi4/basis/aug-cc-pvqz-jkfit.gbs 
    atoms 2      entry CL         line   904 file /home/vance/anaconda3/envs/p4env/share/psi4/basis/aug-cc-pvqz-jkfit.gbs 
    atoms 3      entry N          line   248 file /home/vance/anaconda3/envs/p4env/share/psi4/basis/aug-cc-pvqz-jkfit.gbs 

  ==> Integral Setup <==

  ==> DiskDFJK: Density-Fitted J/K Matrices <==

    J tasked:                  Yes
    K tasked:                  Yes
    wK tasked:                  No
    OpenMP threads:              4
    Integrals threads:           4
    Memory [MiB]:             5722
    Algorithm:                Core
    Integral Cache:           SAVE
    Schwarz Cutoff:          1E-12
    Fitting Condition:       1E-10

   => Auxiliary Basis Set <=

  Basis Set: (THIS_BASIS AUX)
    Blend: AUG-CC-PVQZ-JKFIT
    Number of shells: 152
    Number of basis functions: 630
    Number of Cartesian functions: 849
    Spherical Harmonics?: true
    Max angular momentum: 5

  Minimum eigenvalue in the overlap matrix is 1.8188138588E-05.
  Reciprocal condition number of the overlap matrix is 1.6218616093E-06.
    Using symmetric orthogonalization.

  ==> Pre-Iterations <==

  SCF Guess: Superposition of Atomic Densities via on-the-fly atomic UHF (no occupation information).

   -------------------------
    Irrep   Nso     Nmo    
   -------------------------
     A        348     348 
   -------------------------
    Total     348     348
   -------------------------

  ==> Iterations <==

                           Total Energy        Delta E     RMS |[F,P]|

   @DF-RHF iter SAD:  -515.58401097544595   -5.15584e+02   0.00000e+00 
   @DF-RHF iter   1:  -516.23873630164189   -6.54725e-01   1.35400e-03 ADIIS/DIIS
   @DF-RHF iter   2:  -516.31648088034240   -7.77446e-02   7.21799e-04 ADIIS/DIIS
   @DF-RHF iter   3:  -516.34060165539870   -2.41208e-02   9.16017e-05 DIIS
   @DF-RHF iter   4:  -516.34157674070343   -9.75085e-04   3.11318e-05 DIIS
   @DF-RHF iter   5:  -516.34166495734121   -8.82166e-05   7.67574e-06 DIIS
   @DF-RHF iter   6:  -516.34167527490013   -1.03176e-05   1.72331e-06 DIIS
   @DF-RHF iter   7:  -516.34167592116216   -6.46262e-07   4.65238e-07 DIIS
   @DF-RHF iter   8:  -516.34167595846930   -3.73071e-08   9.84861e-08 DIIS
   @DF-RHF iter   9:  -516.34167595978249   -1.31320e-09   2.02746e-08 DIIS
   @DF-RHF iter  10:  -516.34167595984445   -6.19593e-11   3.91642e-09 DIIS
  Energy and wave function converged.


  ==> Post-Iterations <==

    Orbital Energies [Eh]
    ---------------------

    Doubly Occupied:                                                      

       1A   -104.815830     2A    -15.569398     3A    -10.540885  
       4A     -8.007985     5A     -8.006529     6A     -8.006529  
       7A     -1.170540     8A     -1.074239     9A     -0.660286  
      10A     -0.660283    11A     -0.587000    12A     -0.454815  
      13A     -0.445629    14A     -0.445629  

    Virtual:                                                              

      15A      0.019631    16A      0.039296    17A      0.039296  
      18A      0.049485    19A      0.105776    20A      0.112596  
      21A      0.112597    22A      0.114806    23A      0.130279  
      24A      0.130280    25A      0.136703    26A      0.169314  
      27A      0.171260    28A      0.171261    29A      0.193706  
      30A      0.193706    31A      0.236396    32A      0.273593  
      33A      0.276452    34A      0.280475    35A      0.280475  
      36A      0.305608    37A      0.305608    38A      0.314793  
      39A      0.314794    40A      0.316075    41A      0.341569  
      42A      0.354694    43A      0.364143    44A      0.364143  
      45A      0.387431    46A      0.387432    47A      0.427200  
      48A      0.427200    49A      0.438869    50A      0.461016  
      51A      0.467075    52A      0.470668    53A      0.470668  
      54A      0.539182    55A      0.539182    56A      0.593775  
      57A      0.593775    58A      0.618302    59A      0.649046  
      60A      0.670916    61A      0.670916    62A      0.681571  
      63A      0.681571    64A      0.683970    65A      0.716582  
      66A      0.727024    67A      0.727024    68A      0.731069  
      69A      0.749486    70A      0.749487    71A      0.766545  
      72A      0.766545    73A      0.766963    74A      0.772855  
      75A      0.783792    76A      0.783793    77A      0.844741  
      78A      0.845710    79A      0.845711    80A      0.848665  
      81A      0.903464    82A      0.905029    83A      0.905029  
      84A      0.927242    85A      0.927242    86A      0.980715  
      87A      0.980716    88A      0.984805    89A      0.988781  
      90A      1.022604    91A      1.022605    92A      1.033899  
      93A      1.055071    94A      1.055071    95A      1.113972  
      96A      1.201107    97A      1.201107    98A      1.242280  
      99A      1.252724   100A      1.293111   101A      1.293111  
     102A      1.348469   103A      1.406123   104A      1.406123  
     105A      1.408467   106A      1.428417   107A      1.428418  
     108A      1.440822   109A      1.462621   110A      1.502264  
     111A      1.502265   112A      1.546730   113A      1.546731  
     114A      1.571596   115A      1.610887   116A      1.628986  
     117A      1.628987   118A      1.645306   119A      1.667812  
     120A      1.702554   121A      1.702554   122A      1.718328  
     123A      1.764531   124A      1.764532   125A      1.800915  
     126A      1.800917   127A      1.807650   128A      1.807650  
     129A      1.833893   130A      1.848599   131A      1.860210  
     132A      1.860210   133A      1.883862   134A      1.892872  
     135A      1.892872   136A      1.920653   137A      1.920654  
     138A      1.947132   139A      1.947133   140A      2.012862  
     141A      2.026318   142A      2.027946   143A      2.027947  
     144A      2.036859   145A      2.055826   146A      2.055826  
     147A      2.058605   148A      2.086218   149A      2.094791  
     150A      2.143045   151A      2.143046   152A      2.145111  
     153A      2.161286   154A      2.161286   155A      2.189913  
     156A      2.189914   157A      2.198287   158A      2.247987  
     159A      2.247987   160A      2.254178   161A      2.254178  
     162A      2.275572   163A      2.298274   164A      2.407060  
     165A      2.438197   166A      2.438198   167A      2.451595  
     168A      2.496687   169A      2.575103   170A      2.575104  
     171A      2.678242   172A      2.678244   173A      2.730456  
     174A      2.824838   175A      2.824838   176A      2.860541  
     177A      2.880271   178A      2.880272   179A      2.908963  
     180A      2.949541   181A      2.949542   182A      2.966995  
     183A      2.992880   184A      2.992882   185A      3.055220  
     186A      3.091750   187A      3.125230   188A      3.148276  
     189A      3.148276   190A      3.183337   191A      3.183338  
     192A      3.238001   193A      3.238002   194A      3.282152  
     195A      3.282153   196A      3.366910   197A      3.366911  
     198A      3.467888   199A      3.578415   200A      3.579381  
     201A      3.579382   202A      3.616353   203A      3.666022  
     204A      3.695029   205A      3.695030   206A      3.813366  
     207A      3.917224   208A      3.917224   209A      3.938584  
     210A      4.011517   211A      4.011517   212A      4.026641  
     213A      4.157989   214A      4.157994   215A      4.203500  
     216A      4.215426   217A      4.234318   218A      4.234321  
     219A      4.236317   220A      4.378887   221A      4.378887  
     222A      4.438221   223A      4.438222   224A      4.499360  
     225A      4.617118   226A      4.617119   227A      4.649759  
     228A      4.708643   229A      4.708643   230A      4.735826  
     231A      4.735849   232A      4.749706   233A      4.749706  
     234A      4.766504   235A      4.768319   236A      4.779632  
     237A      4.788890   238A      4.788890   239A      4.914362  
     240A      4.914362   241A      4.963008   242A      4.963009  
     243A      5.006137   244A      5.006138   245A      5.073248  
     246A      5.207561   247A      5.207564   248A      5.242984  
     249A      5.402348   250A      5.402349   251A      5.453898  
     252A      5.577060   253A      5.577060   254A      5.626597  
     255A      5.868142   256A      6.598320   257A      6.598322  
     258A      6.640345   259A      6.643138   260A      6.856047  
     261A      6.913611   262A      6.913612   263A      6.948829  
     264A      6.948831   265A      7.096902   266A      7.096902  
     267A      7.181069   268A      7.346299   269A      7.401896  
     270A      7.401899   271A      7.418271   272A      7.511816  
     273A      7.511817   274A      7.596558   275A      7.657217  
     276A      7.669829   277A      7.669829   278A      7.753827  
     279A      7.753834   280A      7.960368   281A      7.960373  
     282A      8.066223   283A      8.129219   284A      8.129222  
     285A      8.258661   286A      8.305369   287A      8.394780  
     288A      8.394783   289A      8.524857   290A      8.576517  
     291A      8.576522   292A      8.672453   293A      8.681531  
     294A      8.681533   295A      8.741323   296A      8.741325  
     297A      8.849314   298A      8.849316   299A      8.887366  
     300A      8.893369   301A      8.893372   302A      8.946605  
     303A      8.958466   304A      9.002417   305A      9.032682  
     306A      9.032686   307A      9.047892   308A      9.319881  
     309A      9.319888   310A      9.466870   311A      9.466872  
     312A      9.509219   313A      9.509224   314A      9.570237  
     315A      9.619178   316A      9.619179   317A      9.720569  
     318A      9.753272   319A      9.916950   320A      9.916956  
     321A      9.990707   322A     10.101762   323A     10.101765  
     324A     10.140622   325A     10.224039   326A     10.310195  
     327A     10.310202   328A     10.544138   329A     10.544142  
     330A     10.849770   331A     10.898745   332A     11.001897  
     333A     11.001900   334A     11.262432   335A     11.799648  
     336A     12.188309   337A     12.188317   338A     12.259690  
     339A     12.328761   340A     12.328776   341A     13.044015  
     342A     13.143185   343A     13.143195   344A     14.872676  
     345A     15.094492   346A     15.094504   347A     26.277001  
     348A     36.774697  

    Final Occupation by Irrep:
              A 
    DOCC [    14 ]
    NA   [    14 ]
    NB   [    14 ]

  @DF-RHF Final Energy:  -516.34167595984445

   => Energetics <=

    Nuclear Repulsion Energy =             45.7712120751661047
    One-Electron Energy =                -803.3346205146714283
    Two-Electron Energy =                 241.2217324796608864
    Total Energy =                       -516.3416759598444514

Computation Completed


Properties will be evaluated at   0.000000,   0.000000,   0.000000 [a0]

Properties computed using the SCF density matrix


 Multipole Moments:

 ------------------------------------------------------------------------------------
     Multipole            Electronic (a.u.)      Nuclear  (a.u.)        Total (a.u.)
 ------------------------------------------------------------------------------------

 L = 1.  Multiply by 2.5417464519 to convert [e a0] to [Debye]
 Dipole X            :         -0.0000060            0.0000088            0.0000029
 Dipole Y            :          7.2607716           -8.7800289           -1.5192573
 Dipole Z            :         -0.0000000            0.0000000           -0.0000000
 Magnitude           :                                                    1.5192573

 ------------------------------------------------------------------------------------

*** tstop() called on cmpsrv002 at Thu Sep 26 15:25:51 2024
Module time:
	user time   =      25.00 seconds =       0.42 minutes
	system time =       3.40 seconds =       0.06 minutes
	total time  =         18 seconds =       0.30 minutes
Total time:
	user time   =      25.00 seconds =       0.42 minutes
	system time =       3.40 seconds =       0.06 minutes
	total time  =         18 seconds =       0.30 minutes

*** tstart() called on cmpsrv002
*** at Thu Sep 26 15:25:51 2024


  //>>>>>>>>>>>>>>>>>>>>>>>>>>>>>>>>>>>//
  //               DFMP2               //
  //<<<<<<<<<<<<<<<<<<<<<<<<<<<<<<<<<<<//

   => Loading Basis Set <=

    Name: (THIS_BASIS AUX)
    Role: RIFIT
    Keyword: DF_BASIS_MP2
    atoms 1, 4-6 entry H          line    30 file /home/vance/anaconda3/envs/p4env/share/psi4/basis/aug-cc-pvqz-ri.gbs 
    atoms 2      entry CL         line   914 file /home/vance/anaconda3/envs/p4env/share/psi4/basis/aug-cc-pvqz-ri.gbs 
    atoms 3      entry N          line   258 file /home/vance/anaconda3/envs/p4env/share/psi4/basis/aug-cc-pvqz-ri.gbs 

	 --------------------------------------------------------
	                          DF-MP2                         
	      2nd-Order Density-Fitted Moller-Plesset Theory     
	              RMP2 Wavefunction,   4 Threads             
	                                                         
	        Rob Parrish, Justin Turney, Andy Simmonett,      
	           Ed Hohenstein, and C. David Sherrill          
	 --------------------------------------------------------

   => Auxiliary Basis Set <=

  Basis Set: (THIS_BASIS AUX)
    Blend: AUG-CC-PVQZ-RI
    Number of shells: 160
    Number of basis functions: 682
    Number of Cartesian functions: 925
    Spherical Harmonics?: true
    Max angular momentum: 5

	 --------------------------------------------------------
	                 NBF =   348, NAUX =   682
	 --------------------------------------------------------
	   CLASS    FOCC     OCC    AOCC    AVIR     VIR    FVIR
	   PAIRS       0      14      14     334     334       0
	 --------------------------------------------------------

	 Will save fitting metric to file 97.

	-----------------------------------------------------------
	 ==================> DF-MP2 Energies <==================== 
	-----------------------------------------------------------
	 Reference Energy          =    -516.3416759598444514 [Eh]
	 Singles Energy            =      -0.0000000000000000 [Eh]
	 Same-Spin Energy          =      -0.1309458815598430 [Eh]
	 Opposite-Spin Energy      =      -0.4464387582609643 [Eh]
	 Correlation Energy        =      -0.5773846398208073 [Eh]
	 Total Energy              =    -516.9190605996652721 [Eh]
	-----------------------------------------------------------
	 ================> DF-SCS-MP2 Energies <================== 
	-----------------------------------------------------------
	 SCS Same-Spin Scale       =       0.3333333333333333 [-]
	 SCS Opposite-Spin Scale   =       1.2000000000000000 [-]
	 SCS Same-Spin Energy      =      -0.0436486271866143 [Eh]
	 SCS Opposite-Spin Energy  =      -0.5357265099131572 [Eh]
	 SCS Correlation Energy    =      -0.5793751370997715 [Eh]
	 SCS Total Energy          =    -516.9210510969442112 [Eh]
	-----------------------------------------------------------


*** tstop() called on cmpsrv002 at Thu Sep 26 15:25:59 2024
Module time:
	user time   =       6.27 seconds =       0.10 minutes
	system time =       1.09 seconds =       0.02 minutes
	total time  =          8 seconds =       0.13 minutes
Total time:
	user time   =      31.28 seconds =       0.52 minutes
	system time =       4.49 seconds =       0.07 minutes
	total time  =         26 seconds =       0.43 minutes

  //>>>>>>>>>>>>>>>>>>>>>>>>>>>>>>>>>>>//
  //            Monomer A HF           //
  //<<<<<<<<<<<<<<<<<<<<<<<<<<<<<<<<<<<//

   => Libint2 <=

    Primary   basis highest AM E, G, H:  6, 6, 3
    Auxiliary basis highest AM E, G, H:  7, 7, 4
    Onebody   basis highest AM E, G, H:  -, -, -
    Solid Harmonics ordering:            Gaussian

*** tstart() called on cmpsrv002
*** at Thu Sep 26 15:25:59 2024

   => Loading Basis Set <=

    Name: THIS_BASIS
    Role: ORBITAL
    Keyword: BASIS
    atoms 1, 4-6 entry H          line    40 file /home/vance/anaconda3/envs/p4env/share/psi4/basis/aug-cc-pvqz.gbs 
    atoms 2      entry CL         line  1222 file /home/vance/anaconda3/envs/p4env/share/psi4/basis/aug-cc-pvqz.gbs 
    atoms 3      entry N          line   363 file /home/vance/anaconda3/envs/p4env/share/psi4/basis/aug-cc-pvqz.gbs 


         ---------------------------------------------------------
                                   SCF
               by Justin Turney, Rob Parrish, Andy Simmonett
                          and Daniel G. A. Smith
                              RHF Reference
                        4 Threads,   7629 MiB Core
         ---------------------------------------------------------

  ==> Geometry <==

    Molecular point group: c1
    Full point group: Cs

    Geometry (in Angstrom), charge = 0, multiplicity = 1:

       Center              X                  Y                   Z               Mass       
    ------------   -----------------  -----------------  -----------------  -----------------
         H           -0.000000190144    -0.174418256660     0.000000000000     1.007825032230
         CL          -0.000000190144     1.168931743340     0.000000000000    34.968852682000
      Gh(N)          -0.000000190144    -2.326658256660     0.000000000000    14.003074004430
      Gh(H)          -0.473180190144    -2.685668256660     0.819580000000     1.007825032230
      Gh(H)          -0.473180190144    -2.685668256660    -0.819580000000     1.007825032230
      Gh(H)           0.946369809856    -2.685668256660     0.000000000000     1.007825032230

  Running in c1 symmetry.

  Rotational constants: A =      6.22544  B =      0.11485  C =      0.11485 [cm^-1]
  Rotational constants: A = 186633.95025  B =   3443.17056  C =   3443.17037 [MHz]
  Nuclear repulsion =    6.696700473733578

  Charge       = 0
  Multiplicity = 1
  Electrons    = 18
  Nalpha       = 9
  Nbeta        = 9

  ==> Algorithm <==

  SCF Algorithm Type is DF.
  DIIS enabled.
  MOM disabled.
  Fractional occupation disabled.
  Guess Type is SAD.
  Energy threshold   = 1.00e-08
  Density threshold  = 1.00e-08
  Integral threshold = 1.00e-12

  ==> Primary Basis <==

  Basis Set: THIS_BASIS
    Blend: AUG-CC-PVQZ
    Number of shells: 98
    Number of basis functions: 348
    Number of Cartesian functions: 434
    Spherical Harmonics?: true
    Max angular momentum: 4

   => Loading Basis Set <=

    Name: (THIS_BASIS AUX)
    Role: JKFIT
    Keyword: DF_BASIS_SCF
    atoms 1, 4-6 entry H          line    70 file /home/vance/anaconda3/envs/p4env/share/psi4/basis/aug-cc-pvqz-jkfit.gbs 
    atoms 2      entry CL         line   904 file /home/vance/anaconda3/envs/p4env/share/psi4/basis/aug-cc-pvqz-jkfit.gbs 
    atoms 3      entry N          line   248 file /home/vance/anaconda3/envs/p4env/share/psi4/basis/aug-cc-pvqz-jkfit.gbs 

  ==> Integral Setup <==

  ==> DiskDFJK: Density-Fitted J/K Matrices <==

    J tasked:                  Yes
    K tasked:                  Yes
    wK tasked:                  No
    OpenMP threads:              4
    Integrals threads:           4
    Memory [MiB]:             5722
    Algorithm:                Core
    Integral Cache:           LOAD
    Schwarz Cutoff:          1E-12
    Fitting Condition:       1E-10

   => Auxiliary Basis Set <=

  Basis Set: (THIS_BASIS AUX)
    Blend: AUG-CC-PVQZ-JKFIT
    Number of shells: 152
    Number of basis functions: 630
    Number of Cartesian functions: 849
    Spherical Harmonics?: true
    Max angular momentum: 5

  Minimum eigenvalue in the overlap matrix is 1.8188138588E-05.
  Reciprocal condition number of the overlap matrix is 1.6218616093E-06.
    Using symmetric orthogonalization.

  ==> Pre-Iterations <==

  SCF Guess: Superposition of Atomic Densities via on-the-fly atomic UHF (no occupation information).

   -------------------------
    Irrep   Nso     Nmo    
   -------------------------
     A        348     348 
   -------------------------
    Total     348     348
   -------------------------

  ==> Iterations <==

                           Total Energy        Delta E     RMS |[F,P]|

   @DF-RHF iter SAD:  -459.87084647889145   -4.59871e+02   0.00000e+00 
   @DF-RHF iter   1:  -460.08496482060667   -2.14118e-01   5.44879e-04 ADIIS/DIIS
   @DF-RHF iter   2:  -460.10487776952777   -1.99129e-02   2.29842e-04 ADIIS/DIIS
   @DF-RHF iter   3:  -460.10763884640147   -2.76108e-03   4.35543e-05 DIIS
   @DF-RHF iter   4:  -460.10798344080558   -3.44594e-04   1.24891e-05 DIIS
   @DF-RHF iter   5:  -460.10801684625034   -3.34054e-05   1.75812e-06 DIIS
   @DF-RHF iter   6:  -460.10801742319887   -5.76949e-07   3.77323e-07 DIIS
   @DF-RHF iter   7:  -460.10801743755258   -1.43537e-08   8.62646e-08 DIIS
   @DF-RHF iter   8:  -460.10801743870849   -1.15591e-09   1.68865e-08 DIIS
   @DF-RHF iter   9:  -460.10801743875368   -4.51905e-11   1.75542e-09 DIIS
  Energy and wave function converged.


  ==> Post-Iterations <==

    Orbital Energies [Eh]
    ---------------------

    Doubly Occupied:                                                      

       1A   -104.852111     2A    -10.576165     3A     -8.043298  
       4A     -8.041578     5A     -8.041578     6A     -1.105223  
       7A     -0.610913     8A     -0.475375     9A     -0.475375  

    Virtual:                                                              

      10A      0.018427    11A      0.041802    12A      0.041802  
      13A      0.043422    14A      0.083845    15A      0.100345  
      16A      0.105352    17A      0.105352    18A      0.122977  
      19A      0.122977    20A      0.123901    21A      0.156837  
      22A      0.185791    23A      0.185791    24A      0.194637  
      25A      0.206809    26A      0.206809    27A      0.268816  
      28A      0.268816    29A      0.269568    30A      0.282538  
      31A      0.284022    32A      0.286910    33A      0.286910  
      34A      0.303823    35A      0.304342    36A      0.304342  
      37A      0.347173    38A      0.363671    39A      0.363671  
      40A      0.396976    41A      0.396977    42A      0.428927  
      43A      0.440394    44A      0.440394    45A      0.451635  
      46A      0.481375    47A      0.509998    48A      0.509998  
      49A      0.543539    50A      0.590068    51A      0.590068  
      52A      0.600457    53A      0.621919    54A      0.621919  
      55A      0.633923    56A      0.646709    57A      0.646709  
      58A      0.656653    59A      0.656653    60A      0.661224  
      61A      0.661224    62A      0.715875    63A      0.725683  
      64A      0.745187    65A      0.751391    66A      0.751391  
      67A      0.770945    68A      0.770945    69A      0.785844  
      70A      0.826569    71A      0.830497    72A      0.842165  
      73A      0.842165    74A      0.873577    75A      0.873578  
      76A      0.908030    77A      0.911086    78A      0.911087  
      79A      0.918448    80A      0.978245    81A      0.978246  
      82A      0.997401    83A      1.012689    84A      1.012690  
      85A      1.052741    86A      1.054329    87A      1.054330  
      88A      1.114538    89A      1.133506    90A      1.133506  
      91A      1.143660    92A      1.219501    93A      1.233449  
      94A      1.233449    95A      1.245148    96A      1.272622  
      97A      1.272623    98A      1.352784    99A      1.377740  
     100A      1.377740   101A      1.396949   102A      1.396950  
     103A      1.409816   104A      1.508767   105A      1.531059  
     106A      1.549966   107A      1.549967   108A      1.612910  
     109A      1.612911   110A      1.613057   111A      1.622385  
     112A      1.670463   113A      1.701650   114A      1.701650  
     115A      1.705767   116A      1.757009   117A      1.757009  
     118A      1.771320   119A      1.771320   120A      1.832816  
     121A      1.840529   122A      1.840529   123A      1.859756  
     124A      1.869419   125A      1.869419   126A      1.881092  
     127A      1.881093   128A      1.886981   129A      1.910633  
     130A      1.910633   131A      1.941895   132A      1.951907  
     133A      1.951908   134A      1.963746   135A      1.963747  
     136A      2.025067   137A      2.038772   138A      2.038773  
     139A      2.056865   140A      2.057061   141A      2.070959  
     142A      2.079152   143A      2.109453   144A      2.109453  
     145A      2.153510   146A      2.162506   147A      2.170189  
     148A      2.170189   149A      2.182604   150A      2.182605  
     151A      2.213989   152A      2.232431   153A      2.232432  
     154A      2.266346   155A      2.266347   156A      2.287131  
     157A      2.321460   158A      2.353862   159A      2.353864  
     160A      2.386002   161A      2.386002   162A      2.388760  
     163A      2.431655   164A      2.492882   165A      2.492883  
     166A      2.629652   167A      2.645687   168A      2.645688  
     169A      2.730780   170A      2.788695   171A      2.818299  
     172A      2.818300   173A      2.952319   174A      2.952322  
     175A      3.052383   176A      3.095573   177A      3.095573  
     178A      3.145322   179A      3.173699   180A      3.173699  
     181A      3.200241   182A      3.273365   183A      3.273365  
     184A      3.301980   185A      3.304682   186A      3.334009  
     187A      3.334012   188A      3.412704   189A      3.424122  
     190A      3.424123   191A      3.468666   192A      3.468666  
     193A      3.524046   194A      3.524046   195A      3.676460  
     196A      3.730617   197A      3.795505   198A      3.795505  
     199A      3.805138   200A      3.846434   201A      3.846435  
     202A      3.880398   203A      3.917351   204A      3.998059  
     205A      3.998059   206A      4.100712   207A      4.100714  
     208A      4.131960   209A      4.223956   210A      4.223959  
     211A      4.354064   212A      4.354064   213A      4.361813  
     214A      4.375510   215A      4.409529   216A      4.409530  
     217A      4.479332   218A      4.493457   219A      4.493460  
     220A      4.601275   221A      4.601276   222A      4.647516  
     223A      4.679649   224A      4.679649   225A      4.705139  
     226A      4.707041   227A      4.721932   228A      4.721932  
     229A      4.726635   230A      4.738593   231A      4.739238  
     232A      4.788585   233A      4.788587   234A      4.885210  
     235A      4.885210   236A      4.957789   237A      4.957789  
     238A      5.003786   239A      5.159415   240A      5.266735  
     241A      5.477586   242A      5.477589   243A      5.554307  
     244A      5.554307   245A      5.724506   246A      5.794155  
     247A      5.794160   248A      5.858375   249A      5.955814  
     250A      5.955816   251A      5.969426   252A      6.443339  
     253A      6.514670   254A      6.514672   255A      6.606372  
     256A      6.609438   257A      6.637643   258A      6.637645  
     259A      7.065714   260A      7.065714   261A      7.115466  
     262A      7.171203   263A      7.171206   264A      7.251257  
     265A      7.251261   266A      7.257399   267A      7.586803  
     268A      7.586803   269A      7.607337   270A      7.784751  
     271A      8.090377   272A      8.090380   273A      8.166346  
     274A      8.166347   275A      8.172449   276A      8.223848  
     277A      8.296097   278A      8.296104   279A      8.334414  
     280A      8.397219   281A      8.481454   282A      8.481455  
     283A      8.652855   284A      8.652856   285A      8.691078  
     286A      8.691079   287A      8.748683   288A      8.748683  
     289A      8.878746   290A      8.994015   291A      9.036262  
     292A      9.036268   293A      9.197076   294A      9.245086  
     295A      9.245091   296A      9.312744   297A      9.379006  
     298A      9.379009   299A      9.515386   300A      9.516615  
     301A      9.516616   302A      9.542619   303A      9.573518  
     304A      9.600719   305A      9.600720   306A      9.838680  
     307A      9.998801   308A     10.044478   309A     10.044484  
     310A     10.159569   311A     10.159575   312A     10.471498  
     313A     10.473765   314A     10.473774   315A     10.601533  
     316A     10.685972   317A     10.685981   318A     10.773293  
     319A     10.811789   320A     10.811792   321A     11.111914  
     322A     11.227538   323A     11.347504   324A     11.347507  
     325A     11.942310   326A     11.942321   327A     12.135391  
     328A     12.142063   329A     12.542739   330A     12.542755  
     331A     13.182258   332A     13.182268   333A     13.369411  
     334A     14.025147   335A     14.274001   336A     14.494214  
     337A     14.494224   338A     14.690423   339A     14.690427  
     340A     16.072714   341A     16.072726   342A     16.252405  
     343A     18.308423   344A     19.657471   345A     21.864021  
     346A     21.864060   347A     26.245312   348A     96.393204  

    Final Occupation by Irrep:
              A 
    DOCC [     9 ]
    NA   [     9 ]
    NB   [     9 ]

  @DF-RHF Final Energy:  -460.10801743875368

   => Energetics <=

    Nuclear Repulsion Energy =              6.6967004737335785
    One-Electron Energy =                -649.1662065142434130
    Two-Electron Energy =                 182.3614886017561787
    Total Energy =                       -460.1080174387536772

Computation Completed


Properties will be evaluated at   0.000000,   0.000000,   0.000000 [a0]

Properties computed using the SCF density matrix


 Multipole Moments:

 ------------------------------------------------------------------------------------
     Multipole            Electronic (a.u.)      Nuclear  (a.u.)        Total (a.u.)
 ------------------------------------------------------------------------------------

 L = 1.  Multiply by 2.5417464519 to convert [e a0] to [Debye]
 Dipole X            :          0.0000065           -0.0000065            0.0000000
 Dipole Y            :        -37.7215635           37.2227318           -0.4988317
 Dipole Z            :         -0.0000000            0.0000000           -0.0000000
 Magnitude           :                                                    0.4988317

 ------------------------------------------------------------------------------------

*** tstop() called on cmpsrv002 at Thu Sep 26 15:26:12 2024
Module time:
	user time   =      17.92 seconds =       0.30 minutes
	system time =       2.28 seconds =       0.04 minutes
	total time  =         13 seconds =       0.22 minutes
Total time:
	user time   =      49.21 seconds =       0.82 minutes
	system time =       6.77 seconds =       0.11 minutes
	total time  =         39 seconds =       0.65 minutes

*** tstart() called on cmpsrv002
*** at Thu Sep 26 15:26:12 2024


  //>>>>>>>>>>>>>>>>>>>>>>>>>>>>>>>>>>>//
  //               DFMP2               //
  //<<<<<<<<<<<<<<<<<<<<<<<<<<<<<<<<<<<//

   => Loading Basis Set <=

    Name: (THIS_BASIS AUX)
    Role: RIFIT
    Keyword: DF_BASIS_MP2
    atoms 1, 4-6 entry H          line    30 file /home/vance/anaconda3/envs/p4env/share/psi4/basis/aug-cc-pvqz-ri.gbs 
    atoms 2      entry CL         line   914 file /home/vance/anaconda3/envs/p4env/share/psi4/basis/aug-cc-pvqz-ri.gbs 
    atoms 3      entry N          line   258 file /home/vance/anaconda3/envs/p4env/share/psi4/basis/aug-cc-pvqz-ri.gbs 

	 --------------------------------------------------------
	                          DF-MP2                         
	      2nd-Order Density-Fitted Moller-Plesset Theory     
	              RMP2 Wavefunction,   4 Threads             
	                                                         
	        Rob Parrish, Justin Turney, Andy Simmonett,      
	           Ed Hohenstein, and C. David Sherrill          
	 --------------------------------------------------------

   => Auxiliary Basis Set <=

  Basis Set: (THIS_BASIS AUX)
    Blend: AUG-CC-PVQZ-RI
    Number of shells: 160
    Number of basis functions: 682
    Number of Cartesian functions: 925
    Spherical Harmonics?: true
    Max angular momentum: 5

	 --------------------------------------------------------
	                 NBF =   348, NAUX =   682
	 --------------------------------------------------------
	   CLASS    FOCC     OCC    AOCC    AVIR     VIR    FVIR
	   PAIRS       0       9       9     339     339       0
	 --------------------------------------------------------

	 Will attempt to load fitting metric from file 97.

	-----------------------------------------------------------
	 ==================> DF-MP2 Energies <==================== 
	-----------------------------------------------------------
	 Reference Energy          =    -460.1080174387536772 [Eh]
	 Singles Energy            =      -0.0000000000000000 [Eh]
	 Same-Spin Energy          =      -0.0693713818168209 [Eh]
	 Opposite-Spin Energy      =      -0.2202099467435840 [Eh]
	 Correlation Energy        =      -0.2895813285604050 [Eh]
	 Total Energy              =    -460.3975987673140935 [Eh]
	-----------------------------------------------------------
	 ================> DF-SCS-MP2 Energies <================== 
	-----------------------------------------------------------
	 SCS Same-Spin Scale       =       0.3333333333333333 [-]
	 SCS Opposite-Spin Scale   =       1.2000000000000000 [-]
	 SCS Same-Spin Energy      =      -0.0231237939389403 [Eh]
	 SCS Opposite-Spin Energy  =      -0.2642519360923008 [Eh]
	 SCS Correlation Energy    =      -0.2873757300312411 [Eh]
	 SCS Total Energy          =    -460.3953931687848922 [Eh]
	-----------------------------------------------------------


*** tstop() called on cmpsrv002 at Thu Sep 26 15:26:16 2024
Module time:
	user time   =       4.72 seconds =       0.08 minutes
	system time =       0.81 seconds =       0.01 minutes
	total time  =          4 seconds =       0.07 minutes
Total time:
	user time   =      53.94 seconds =       0.90 minutes
	system time =       7.58 seconds =       0.13 minutes
	total time  =         43 seconds =       0.72 minutes

  //>>>>>>>>>>>>>>>>>>>>>>>>>>>>>>>>>>>//
  //            Monomer B HF           //
  //<<<<<<<<<<<<<<<<<<<<<<<<<<<<<<<<<<<//

   => Libint2 <=

    Primary   basis highest AM E, G, H:  6, 6, 3
    Auxiliary basis highest AM E, G, H:  7, 7, 4
    Onebody   basis highest AM E, G, H:  -, -, -
    Solid Harmonics ordering:            Gaussian

*** tstart() called on cmpsrv002
*** at Thu Sep 26 15:26:16 2024

   => Loading Basis Set <=

    Name: THIS_BASIS
    Role: ORBITAL
    Keyword: BASIS
    atoms 1, 4-6 entry H          line    40 file /home/vance/anaconda3/envs/p4env/share/psi4/basis/aug-cc-pvqz.gbs 
    atoms 2      entry CL         line  1222 file /home/vance/anaconda3/envs/p4env/share/psi4/basis/aug-cc-pvqz.gbs 
    atoms 3      entry N          line   363 file /home/vance/anaconda3/envs/p4env/share/psi4/basis/aug-cc-pvqz.gbs 


         ---------------------------------------------------------
                                   SCF
               by Justin Turney, Rob Parrish, Andy Simmonett
                          and Daniel G. A. Smith
                              RHF Reference
                        4 Threads,   7629 MiB Core
         ---------------------------------------------------------

  ==> Geometry <==

    Molecular point group: c1
    Full point group: Cs

    Geometry (in Angstrom), charge = 0, multiplicity = 1:

       Center              X                  Y                   Z               Mass       
    ------------   -----------------  -----------------  -----------------  -----------------
      Gh(H)          -0.000000190144    -0.174418256660     0.000000000000     1.007825032230
      Gh(CL)         -0.000000190144     1.168931743340     0.000000000000    34.968852682000
         N           -0.000000190144    -2.326658256660     0.000000000000    14.003074004430
         H           -0.473180190144    -2.685668256660     0.819580000000     1.007825032230
         H           -0.473180190144    -2.685668256660    -0.819580000000     1.007825032230
         H            0.946369809856    -2.685668256660     0.000000000000     1.007825032230

  Running in c1 symmetry.

  Rotational constants: A =      6.22544  B =      0.11485  C =      0.11485 [cm^-1]
  Rotational constants: A = 186633.95025  B =   3443.17056  C =   3443.17037 [MHz]
  Nuclear repulsion =   11.947542838505761

  Charge       = 0
  Multiplicity = 1
  Electrons    = 10
  Nalpha       = 5
  Nbeta        = 5

  ==> Algorithm <==

  SCF Algorithm Type is DF.
  DIIS enabled.
  MOM disabled.
  Fractional occupation disabled.
  Guess Type is SAD.
  Energy threshold   = 1.00e-08
  Density threshold  = 1.00e-08
  Integral threshold = 1.00e-12

  ==> Primary Basis <==

  Basis Set: THIS_BASIS
    Blend: AUG-CC-PVQZ
    Number of shells: 98
    Number of basis functions: 348
    Number of Cartesian functions: 434
    Spherical Harmonics?: true
    Max angular momentum: 4

   => Loading Basis Set <=

    Name: (THIS_BASIS AUX)
    Role: JKFIT
    Keyword: DF_BASIS_SCF
    atoms 1, 4-6 entry H          line    70 file /home/vance/anaconda3/envs/p4env/share/psi4/basis/aug-cc-pvqz-jkfit.gbs 
    atoms 2      entry CL         line   904 file /home/vance/anaconda3/envs/p4env/share/psi4/basis/aug-cc-pvqz-jkfit.gbs 
    atoms 3      entry N          line   248 file /home/vance/anaconda3/envs/p4env/share/psi4/basis/aug-cc-pvqz-jkfit.gbs 

  ==> Integral Setup <==

  ==> DiskDFJK: Density-Fitted J/K Matrices <==

    J tasked:                  Yes
    K tasked:                  Yes
    wK tasked:                  No
    OpenMP threads:              4
    Integrals threads:           4
    Memory [MiB]:             5722
    Algorithm:                Core
    Integral Cache:           LOAD
    Schwarz Cutoff:          1E-12
    Fitting Condition:       1E-10

   => Auxiliary Basis Set <=

  Basis Set: (THIS_BASIS AUX)
    Blend: AUG-CC-PVQZ-JKFIT
    Number of shells: 152
    Number of basis functions: 630
    Number of Cartesian functions: 849
    Spherical Harmonics?: true
    Max angular momentum: 5

  Minimum eigenvalue in the overlap matrix is 1.8188138588E-05.
  Reciprocal condition number of the overlap matrix is 1.6218616093E-06.
    Using symmetric orthogonalization.

  ==> Pre-Iterations <==

  SCF Guess: Superposition of Atomic Densities via on-the-fly atomic UHF (no occupation information).

   -------------------------
    Irrep   Nso     Nmo    
   -------------------------
     A        348     348 
   -------------------------
    Total     348     348
   -------------------------

  ==> Iterations <==

                           Total Energy        Delta E     RMS |[F,P]|

   @DF-RHF iter SAD:   -55.64205532737711   -5.56421e+01   0.00000e+00 
   @DF-RHF iter   1:   -56.12627390314486   -4.84219e-01   1.34284e-03 ADIIS/DIIS
   @DF-RHF iter   2:   -56.19507707630953   -6.88032e-02   7.78504e-04 ADIIS/DIIS
   @DF-RHF iter   3:   -56.22332208229950   -2.82450e-02   7.07480e-05 DIIS
   @DF-RHF iter   4:   -56.22395885406142   -6.36772e-04   1.32150e-05 DIIS
   @DF-RHF iter   5:   -56.22398006734672   -2.12133e-05   2.45404e-06 DIIS
   @DF-RHF iter   6:   -56.22398130695539   -1.23961e-06   6.41125e-07 DIIS
   @DF-RHF iter   7:   -56.22398139186466   -8.49093e-08   1.41276e-07 DIIS
   @DF-RHF iter   8:   -56.22398139618925   -4.32459e-09   2.10046e-08 DIIS
   @DF-RHF iter   9:   -56.22398139628430   -9.50493e-11   5.62353e-09 DIIS
  Energy and wave function converged.


  ==> Post-Iterations <==

    Orbital Energies [Eh]
    ---------------------

    Doubly Occupied:                                                      

       1A    -15.539186     2A     -1.139723     3A     -0.630911  
       4A     -0.630909     5A     -0.425446  

    Virtual:                                                              

       6A      0.025407     7A      0.040733     8A      0.043369  
       9A      0.043369    10A      0.095189    11A      0.095189  
      12A      0.100145    13A      0.117457    14A      0.133199  
      15A      0.138541    16A      0.138541    17A      0.144607  
      18A      0.182463    19A      0.182463    20A      0.207525  
      21A      0.207525    22A      0.260630    23A      0.283131  
      24A      0.291176    25A      0.298302    26A      0.298302  
      27A      0.301397    28A      0.301397    29A      0.318253  
      30A      0.322934    31A      0.322934    32A      0.331219  
      33A      0.357839    34A      0.362416    35A      0.362416  
      36A      0.389085    37A      0.393465    38A      0.393466  
      39A      0.436302    40A      0.436302    41A      0.472048  
      42A      0.473892    43A      0.473893    44A      0.538312  
      45A      0.538312    46A      0.556265    47A      0.562118  
      48A      0.562119    49A      0.572363    50A      0.622753  
      51A      0.698920    52A      0.713542    53A      0.732276  
      54A      0.732276    55A      0.734747    56A      0.746825  
      57A      0.767155    58A      0.767156    59A      0.787764  
      60A      0.788155    61A      0.788156    62A      0.800366  
      63A      0.800367    64A      0.835320    65A      0.835321  
      66A      0.868963    67A      0.872543    68A      0.883272  
      69A      0.883272    70A      0.906946    71A      0.906947  
      72A      0.933221    73A      0.941894    74A      0.977709  
      75A      0.977709    76A      0.996141    77A      0.996142  
      78A      1.004491    79A      1.018938    80A      1.018938  
      81A      1.054360    82A      1.054360    83A      1.070510  
      84A      1.076425    85A      1.076426    86A      1.119406  
      87A      1.142152    88A      1.145922    89A      1.145922  
      90A      1.277641    91A      1.324781    92A      1.324781  
      93A      1.342082    94A      1.342082    95A      1.371555  
      96A      1.385278    97A      1.453328    98A      1.453624  
      99A      1.453625   100A      1.489830   101A      1.494368  
     102A      1.548235   103A      1.548236   104A      1.566875  
     105A      1.566877   106A      1.593317   107A      1.647580  
     108A      1.671010   109A      1.671010   110A      1.709920  
     111A      1.719302   112A      1.719302   113A      1.719328  
     114A      1.762291   115A      1.792034   116A      1.792036  
     117A      1.845161   118A      1.845161   119A      1.882098  
     120A      1.885519   121A      1.897571   122A      1.897571  
     123A      1.943989   124A      1.952287   125A      1.952288  
     126A      1.957410   127A      1.957411   128A      2.048662  
     129A      2.048663   130A      2.053788   131A      2.077967  
     132A      2.121464   133A      2.121465   134A      2.136248  
     135A      2.165323   136A      2.165324   137A      2.179703  
     138A      2.191647   139A      2.222352   140A      2.222352  
     141A      2.246314   142A      2.246315   143A      2.313874  
     144A      2.334748   145A      2.334819   146A      2.334819  
     147A      2.359337   148A      2.384013   149A      2.384014  
     150A      2.401310   151A      2.433518   152A      2.433518  
     153A      2.460714   154A      2.472659   155A      2.505496  
     156A      2.523454   157A      2.523454   158A      2.567989  
     159A      2.631483   160A      2.631484   161A      2.683775  
     162A      2.683776   163A      2.899167   164A      2.899168  
     165A      2.913983   166A      2.913985   167A      2.920679  
     168A      2.934464   169A      2.946515   170A      2.946516  
     171A      2.970354   172A      2.970355   173A      2.995291  
     174A      3.049231   175A      3.049234   176A      3.059027  
     177A      3.099481   178A      3.152183   179A      3.194434  
     180A      3.194435   181A      3.235157   182A      3.281865  
     183A      3.281866   184A      3.288131   185A      3.288132  
     186A      3.337768   187A      3.397717   188A      3.397717  
     189A      3.490140   190A      3.490141   191A      3.554219  
     192A      3.570021   193A      3.570021   194A      3.653337  
     195A      3.653338   196A      3.670939   197A      3.692732  
     198A      3.817522   199A      3.846780   200A      3.846780  
     201A      3.975624   202A      4.019882   203A      4.071870  
     204A      4.071871   205A      4.200534   206A      4.200537  
     207A      4.204970   208A      4.233040   209A      4.269314  
     210A      4.275243   211A      4.275247   212A      4.472238  
     213A      4.472238   214A      4.496906   215A      4.496906  
     216A      4.581791   217A      4.840648   218A      4.840648  
     219A      4.843373   220A      5.005377   221A      5.005377  
     222A      5.085638   223A      5.139450   224A      5.219418  
     225A      5.219421   226A      5.422813   227A      5.422814  
     228A      5.428997   229A      5.428997   230A      5.458650  
     231A      5.459848   232A      5.482489   233A      5.559759  
     234A      5.559760   235A      5.707745   236A      5.898931  
     237A      5.898931   238A      6.064030   239A      6.258524  
     240A      6.258524   241A      6.259233   242A      6.260180  
     243A      6.345008   244A      6.345008   245A      6.587162  
     246A      6.875656   247A      6.888522   248A      6.888523  
     249A      6.959841   250A      6.971567   251A      6.977191  
     252A      6.977193   253A      7.327824   254A      7.373811  
     255A      7.410179   256A      7.410179   257A      7.445053  
     258A      7.445055   259A      7.575195   260A      7.575196  
     261A      7.616264   262A      7.616264   263A      7.625955  
     264A      7.684275   265A      7.692859   266A      7.750892  
     267A      7.750896   268A      7.797091   269A      7.797095  
     270A      7.939824   271A      7.939828   272A      8.063984  
     273A      8.063984   274A      8.081948   275A      8.109522  
     276A      8.109527   277A      8.331243   278A      8.373784  
     279A      8.430065   280A      8.430067   281A      8.575511  
     282A      8.592101   283A      8.592102   284A      8.632353  
     285A      8.632361   286A      8.722496   287A      8.878425  
     288A      8.878426   289A      8.915570   290A      8.915574  
     291A      8.969941   292A      8.975311   293A      9.014311  
     294A      9.030007   295A      9.062624   296A      9.062629  
     297A      9.103242   298A      9.310423   299A      9.310424  
     300A      9.362996   301A      9.363002   302A      9.438616  
     303A      9.486449   304A      9.486449   305A      9.591882  
     306A      9.591885   307A      9.623903   308A      9.745972  
     309A      9.745973   310A      9.748171   311A      9.869566  
     312A      9.937499   313A      9.937505   314A     10.035425  
     315A     10.126822   316A     10.126825   317A     10.182569  
     318A     10.198940   319A     10.198940   320A     10.355896  
     321A     10.355902   322A     10.575555   323A     10.575559  
     324A     10.676843   325A     10.872515   326A     10.879724  
     327A     11.031211   328A     11.031214   329A     11.140371  
     330A     11.830633   331A     12.217666   332A     12.217674  
     333A     12.290126   334A     12.359230   335A     12.359245  
     336A     13.071888   337A     13.173328   338A     13.173338  
     339A     13.358062   340A     14.902640   341A     15.123182  
     342A     15.123194   343A     31.081254   344A     31.081254  
     345A     31.388811   346A     36.805338   347A     42.806066  
     348A    160.385233  

    Final Occupation by Irrep:
              A 
    DOCC [     5 ]
    NA   [     5 ]
    NB   [     5 ]

  @DF-RHF Final Energy:   -56.22398139628430

   => Energetics <=

    Nuclear Repulsion Energy =             11.9475428385057612
    One-Electron Energy =                 -99.6106936045472651
    Two-Electron Energy =                  31.4391693697571952
    Total Energy =                        -56.2239813962843016

Computation Completed


Properties will be evaluated at   0.000000,   0.000000,   0.000000 [a0]

Properties computed using the SCF density matrix


 Multipole Moments:

 ------------------------------------------------------------------------------------
     Multipole            Electronic (a.u.)      Nuclear  (a.u.)        Total (a.u.)
 ------------------------------------------------------------------------------------

 L = 1.  Multiply by 2.5417464519 to convert [e a0] to [Debye]
 Dipole X            :         -0.0000127            0.0000153            0.0000026
 Dipole Y            :         45.3963475          -46.0027607           -0.6064131
 Dipole Z            :          0.0000000            0.0000000            0.0000000
 Magnitude           :                                                    0.6064131

 ------------------------------------------------------------------------------------

*** tstop() called on cmpsrv002 at Thu Sep 26 15:26:25 2024
Module time:
	user time   =      16.03 seconds =       0.27 minutes
	system time =       1.50 seconds =       0.03 minutes
	total time  =          9 seconds =       0.15 minutes
Total time:
	user time   =      69.99 seconds =       1.17 minutes
	system time =       9.08 seconds =       0.15 minutes
	total time  =         52 seconds =       0.87 minutes

*** tstart() called on cmpsrv002
*** at Thu Sep 26 15:26:25 2024


  //>>>>>>>>>>>>>>>>>>>>>>>>>>>>>>>>>>>//
  //               DFMP2               //
  //<<<<<<<<<<<<<<<<<<<<<<<<<<<<<<<<<<<//

   => Loading Basis Set <=

    Name: (THIS_BASIS AUX)
    Role: RIFIT
    Keyword: DF_BASIS_MP2
    atoms 1, 4-6 entry H          line    30 file /home/vance/anaconda3/envs/p4env/share/psi4/basis/aug-cc-pvqz-ri.gbs 
    atoms 2      entry CL         line   914 file /home/vance/anaconda3/envs/p4env/share/psi4/basis/aug-cc-pvqz-ri.gbs 
    atoms 3      entry N          line   258 file /home/vance/anaconda3/envs/p4env/share/psi4/basis/aug-cc-pvqz-ri.gbs 

	 --------------------------------------------------------
	                          DF-MP2                         
	      2nd-Order Density-Fitted Moller-Plesset Theory     
	              RMP2 Wavefunction,   4 Threads             
	                                                         
	        Rob Parrish, Justin Turney, Andy Simmonett,      
	           Ed Hohenstein, and C. David Sherrill          
	 --------------------------------------------------------

   => Auxiliary Basis Set <=

  Basis Set: (THIS_BASIS AUX)
    Blend: AUG-CC-PVQZ-RI
    Number of shells: 160
    Number of basis functions: 682
    Number of Cartesian functions: 925
    Spherical Harmonics?: true
    Max angular momentum: 5

	 --------------------------------------------------------
	                 NBF =   348, NAUX =   682
	 --------------------------------------------------------
	   CLASS    FOCC     OCC    AOCC    AVIR     VIR    FVIR
	   PAIRS       0       5       5     343     343       0
	 --------------------------------------------------------

	 Will attempt to load fitting metric from file 97.

	-----------------------------------------------------------
	 ==================> DF-MP2 Energies <==================== 
	-----------------------------------------------------------
	 Reference Energy          =     -56.2239813962843016 [Eh]
	 Singles Energy            =      -0.0000000000000000 [Eh]
	 Same-Spin Energy          =      -0.0594122268321508 [Eh]
	 Opposite-Spin Energy      =      -0.2248991749927633 [Eh]
	 Correlation Energy        =      -0.2843114018249140 [Eh]
	 Total Energy              =     -56.5082927981092169 [Eh]
	-----------------------------------------------------------
	 ================> DF-SCS-MP2 Energies <================== 
	-----------------------------------------------------------
	 SCS Same-Spin Scale       =       0.3333333333333333 [-]
	 SCS Opposite-Spin Scale   =       1.2000000000000000 [-]
	 SCS Same-Spin Energy      =      -0.0198040756107169 [Eh]
	 SCS Opposite-Spin Energy  =      -0.2698790099913159 [Eh]
	 SCS Correlation Energy    =      -0.2896830856020328 [Eh]
	 SCS Total Energy          =     -56.5136644818863374 [Eh]
	-----------------------------------------------------------


*** tstop() called on cmpsrv002 at Thu Sep 26 15:26:28 2024
Module time:
	user time   =       4.18 seconds =       0.07 minutes
	system time =       0.76 seconds =       0.01 minutes
	total time  =          3 seconds =       0.05 minutes
Total time:
	user time   =      74.18 seconds =       1.24 minutes
	system time =       9.84 seconds =       0.16 minutes
	total time  =         55 seconds =       0.92 minutes
  Constructing Basis Sets for SAPT...

   => Loading Basis Set <=

    Name: (THIS_BASIS AUX)
    Role: RIFIT
    Keyword: DF_BASIS_SAPT
    atoms 1, 4-6 entry H          line    30 file /home/vance/anaconda3/envs/p4env/share/psi4/basis/aug-cc-pvqz-ri.gbs 
    atoms 2      entry CL         line   914 file /home/vance/anaconda3/envs/p4env/share/psi4/basis/aug-cc-pvqz-ri.gbs 
    atoms 3      entry N          line   258 file /home/vance/anaconda3/envs/p4env/share/psi4/basis/aug-cc-pvqz-ri.gbs 

   => Loading Basis Set <=

    Name: (THIS_BASIS AUX)
    Role: JKFIT
    Keyword: DF_BASIS_ELST
    atoms 1, 4-6 entry H          line    70 file /home/vance/anaconda3/envs/p4env/share/psi4/basis/aug-cc-pvqz-jkfit.gbs 
    atoms 2      entry CL         line   904 file /home/vance/anaconda3/envs/p4env/share/psi4/basis/aug-cc-pvqz-jkfit.gbs 
    atoms 3      entry N          line   248 file /home/vance/anaconda3/envs/p4env/share/psi4/basis/aug-cc-pvqz-jkfit.gbs 


  //>>>>>>>>>>>>>>>>>>>>>>>>>>>>>>>>>>>//
  //             SAPT2+DMP2            //
  //<<<<<<<<<<<<<<<<<<<<<<<<<<<<<<<<<<<//


*** tstart() called on cmpsrv002
*** at Thu Sep 26 15:26:28 2024

        SAPT2+  
    Ed Hohenstein
     6 June 2009

      Orbital Information
  --------------------------
    NSO        =       348
    NMO        =       348
    NRI        =       682
    NOCC A     =         9
    NOCC B     =         5
    FOCC A     =         0
    FOCC B     =         0
    NVIR A     =       339
    NVIR B     =       343

    Estimated memory usage: 870.6 MB

    Natural Orbital Cutoff:   1.000E-06
    Disp(T3) Truncation:            Yes
    CCD (vv|vv) Truncation:         Yes
    MBPT T2 Truncation:             Yes

    Monomer A: 228 virtual orbitals dropped
    Monomer B: 177 virtual orbitals dropped

    Elst10,r            =    -0.015420115278 [Eh]
    Exch10 (S^2)        =     0.011662553789 [Eh]
    Exch10              =     0.011782804313 [Eh]
    Ind20,r (A<-B)      =    -0.001567651163 [Eh]
    Ind20,r (B<-A)      =    -0.004615531454 [Eh]
    Ind20,r             =    -0.006183182617 [Eh]
    Exch-Ind20,r (A<-B) =     0.000561121415 [Eh]
    Exch-Ind20,r (B<-A) =     0.002597650054 [Eh]
    Exch-Ind20,r        =     0.003158771468 [Eh]
    Disp20              =    -0.005121029075 [Eh]
    Disp20 (NO)         =    -0.004334496513 [Eh]
    Exch-Disp20         =     0.000933936946 [Eh]
    Elst12,r            =     0.000280143060 [Eh]
    Exch11              =     0.000586302028 [Eh]
    Exch12              =     0.000137840489 [Eh]
    Ind22               =    -0.000346760248 [Eh]
    Disp21              =     0.000261404272 [Eh]
    Disp22 (SDQ)        =     0.000275807562 [Eh]

    (i =   1 of   5)         18 seconds
    (i =   2 of   5)         39 seconds
    (i =   3 of   5)         56 seconds
    (i =   4 of   5)         69 seconds
    (i =   5 of   5)         85 seconds

    Disp220 (T)         =    -0.000354675154 [Eh]

    (i =   1 of   9)         13 seconds
    (i =   2 of   9)         26 seconds
    (i =   3 of   9)         40 seconds
    (i =   4 of   9)         52 seconds
    (i =   5 of   9)         65 seconds
    (i =   6 of   9)         77 seconds
    (i =   7 of   9)         91 seconds
    (i =   8 of   9)        106 seconds
    (i =   9 of   9)        122 seconds

    Disp202 (T)         =    -0.000356438656 [Eh]

    Disp22 (T)          =    -0.000711113810 [Eh]

    Est. Disp220 (T)    =    -0.000419034083 [Eh]
    Est. Disp202 (T)    =    -0.000421117589 [Eh]

    Est. Disp22 (T)     =    -0.000840151672 [Eh]

    SAPT Results 
  --------------------------------------------------------------------------------------------------------
    Electrostatics                -15.13997222 [mEh]      -9.50047600 [kcal/mol]     -39.74999158 [kJ/mol]
      Elst10,r                    -15.42011528 [mEh]      -9.67626842 [kcal/mol]     -40.48550708 [kJ/mol]
      Elst12,r                      0.28014306 [mEh]       0.17579242 [kcal/mol]       0.73551550 [kJ/mol]

    Exchange                       12.50694683 [mEh]       7.84822762 [kcal/mol]      32.83698438 [kJ/mol]
      Exch10                       11.78280431 [mEh]       7.39382133 [kcal/mol]      30.93574846 [kJ/mol]
      Exch10(S^2)                  11.66255379 [mEh]       7.31836299 [kcal/mol]      30.62003076 [kJ/mol]
      Exch11(S^2)                   0.58630203 [mEh]       0.36791008 [kcal/mol]       1.53933576 [kJ/mol]
      Exch12(S^2)                   0.13784049 [mEh]       0.08649621 [kcal/mol]       0.36190015 [kJ/mol]

    Induction                      -6.34891672 [mEh]      -3.98400539 [kcal/mol]     -16.66907856 [kJ/mol]
      Ind20,r                      -6.18318262 [mEh]      -3.88000567 [kcal/mol]     -16.23394372 [kJ/mol]
      Ind22                        -0.34676025 [mEh]      -0.21759534 [kcal/mol]      -0.91041891 [kJ/mol]
      Exch-Ind20,r                  3.15877147 [mEh]       1.98215902 [kcal/mol]       8.29335335 [kJ/mol]
      Exch-Ind22                    0.17714767 [mEh]       0.11116184 [kcal/mol]       0.46510114 [kJ/mol]
      delta HF,r (2)               -3.01540269 [mEh]      -1.89219376 [kcal/mol]      -7.91693868 [kJ/mol]
      delta MP2,r (2)              -0.13949030 [mEh]      -0.08753149 [kcal/mol]      -0.36623174 [kJ/mol]

    Dispersion                     -4.49003197 [mEh]      -2.81753760 [kcal/mol]     -11.78857731 [kJ/mol]
      Disp20                       -5.12102908 [mEh]      -3.21349426 [kcal/mol]     -13.44525998 [kJ/mol]
      Disp21                        0.26140427 [mEh]       0.16403366 [kcal/mol]       0.68631682 [kJ/mol]
      Disp22 (SDQ)                  0.27580756 [mEh]       0.17307186 [kcal/mol]       0.72413265 [kJ/mol]
      Disp22 (T)                   -0.71111381 [mEh]      -0.44623065 [kcal/mol]      -1.86702905 [kJ/mol]
      Est. Disp22 (T)              -0.84015167 [mEh]      -0.52720313 [kcal/mol]      -2.20581791 [kJ/mol]
      Exch-Disp20                   0.93393695 [mEh]       0.58605428 [kcal/mol]       2.45205111 [kJ/mol]

  Total HF                         -9.67712481 [mEh]      -6.07248749 [kcal/mol]     -25.40728768 [kJ/mol]
  Total SAPT0                     -13.86421694 [mEh]      -8.69992747 [kcal/mol]     -36.40049655 [kJ/mol]
  Total SAPT2                     -13.02954394 [mEh]      -8.17616226 [kcal/mol]     -34.20906290 [kJ/mol]
  Total SAPT2+                    -13.33248378 [mEh]      -8.36625988 [kcal/mol]     -35.00443134 [kJ/mol]
  Total SAPT2+dMP2                -13.47197408 [mEh]      -8.45379137 [kcal/mol]     -35.37066308 [kJ/mol]

  Special recipe for scaled SAPT0 (see Manual):
    Electrostatics sSAPT0         -15.42011528 [mEh]      -9.67626842 [kcal/mol]     -40.48550708 [kJ/mol]
    Exchange sSAPT0                11.78280431 [mEh]       7.39382133 [kcal/mol]      30.93574846 [kJ/mol]
    Induction sSAPT0               -5.94109433 [mEh]      -3.72809297 [kcal/mol]     -15.59834100 [kJ/mol]
    Dispersion sSAPT0              -4.15790426 [mEh]      -2.60912432 [kcal/mol]     -10.91657614 [kJ/mol]
  Total sSAPT0                    -13.73630955 [mEh]      -8.61966438 [kcal/mol]     -36.06467576 [kJ/mol]
  --------------------------------------------------------------------------------------------------------

*** tstop() called on cmpsrv002 at Thu Sep 26 15:43:15 2024
Module time:
	user time   =    1140.84 seconds =      19.01 minutes
	system time =      87.53 seconds =       1.46 minutes
	total time  =       1007 seconds =      16.78 minutes
Total time:
	user time   =    1215.33 seconds =      20.26 minutes
	system time =      97.39 seconds =       1.62 minutes
	total time  =       1062 seconds =      17.70 minutes

    Psi4 stopped on: Thursday, 26 September 2024 03:43PM
    Psi4 wall time for execution: 0:17:41.89

*** Psi4 exiting successfully. Buy a developer a beer!
