
    -----------------------------------------------------------------------
          Psi4: An Open-Source Ab Initio Electronic Structure Package
                               Psi4 1.9.1 release

                         Git: Rev {} zzzzzzz 


    D. G. A. Smith, L. A. Burns, A. C. Simmonett, R. M. Parrish,
    M. C. Schieber, R. Galvelis, P. Kraus, H. Kruse, R. Di Remigio,
    A. Alenaizan, A. M. James, S. Lehtola, J. P. Misiewicz, M. Scheurer,
    R. A. Shaw, J. B. Schriber, Y. Xie, Z. L. Glick, D. A. Sirianni,
    J. S. O'Brien, J. M. Waldrop, A. Kumar, E. G. Hohenstein,
    B. P. Pritchard, B. R. Brooks, H. F. Schaefer III, A. Yu. Sokolov,
    K. Patkowski, A. E. DePrince III, U. Bozkaya, R. A. King,
    F. A. Evangelista, J. M. Turney, T. D. Crawford, C. D. Sherrill,
    J. Chem. Phys. 152(18) 184108 (2020). https://doi.org/10.1063/5.0006002

                            Additional Code Authors
    E. T. Seidl, C. L. Janssen, E. F. Valeev, M. L. Leininger,
    J. F. Gonthier, R. M. Richard, H. R. McAlexander, M. Saitow, X. Wang,
    P. Verma, M. H. Lechner, A. Jiang, S. Behnle, A. G. Heide,
    M. F. Herbst, and D. L. Poole

             Previous Authors, Complete List of Code Contributors,
                       and Citations for Specific Modules
    https://github.com/psi4/psi4/blob/master/codemeta.json
    https://github.com/psi4/psi4/graphs/contributors
    http://psicode.org/psi4manual/master/introduction.html#citing-psifour

    -----------------------------------------------------------------------


    Psi4 started on: Thursday, 26 September 2024 03:25PM

    Process ID: 636578
    Host:       cmpsrv002
    PSIDATADIR: /home/vance/anaconda3/envs/p4env/share/psi4
    Memory:     500.0 MiB
    Threads:    8
    
  ==> Input File <==

--------------------------------------------------------------------------
#charge=0 charge_a=0 charge_b=0 selection_a=1-2 selection_b=3-6 scaling=1.5 benchmark_Eint=-5.261 benchmark_unit=kcal/mol group=XH-N
set_num_threads(4)
memory 8 GB
basis this_basis {
    assign    aug-cc-pVQZ
}

molecule {
     0 1
    --
     0 1
     H        0.00000       -0.31269        0.00000
    Cl       -0.00000        1.03066        0.00000
    --
     0 1
     N        0.00000       -2.89538        0.00000
     H       -0.47318       -3.25439        0.81958
     H       -0.47318       -3.25439       -0.81958
     H        0.94637       -3.25439        0.00000
}

set {
    scf_type                DF
    freeze_core             false
    do_ind_exch_sinf        true
    do_disp_exch_sinf       true
}

nrg = energy('sapt2+dmp2')
--------------------------------------------------------------------------
  Threads set to 4 by Python driver.

  Memory set to   7.451 GiB by Python driver.

Scratch directory: /scratch2/vance/psi4/
  SAPT does not make use of molecular symmetry, further calculations in C1 point group.
   => Loading Basis Set <=

    Name: THIS_BASIS
    Role: ORBITAL
    Keyword: BASIS
    atoms 1, 4-6 entry H          line    40 file /home/vance/anaconda3/envs/p4env/share/psi4/basis/aug-cc-pvqz.gbs 
    atoms 2      entry CL         line  1222 file /home/vance/anaconda3/envs/p4env/share/psi4/basis/aug-cc-pvqz.gbs 
    atoms 3      entry N          line   363 file /home/vance/anaconda3/envs/p4env/share/psi4/basis/aug-cc-pvqz.gbs 

   => Loading Basis Set <=

    Name: THIS_BASIS
    Role: ORBITAL
    Keyword: BASIS
    atoms 1, 4-6 entry H          line    40 file /home/vance/anaconda3/envs/p4env/share/psi4/basis/aug-cc-pvqz.gbs 
    atoms 2      entry CL         line  1222 file /home/vance/anaconda3/envs/p4env/share/psi4/basis/aug-cc-pvqz.gbs 
    atoms 3      entry N          line   363 file /home/vance/anaconda3/envs/p4env/share/psi4/basis/aug-cc-pvqz.gbs 


  //>>>>>>>>>>>>>>>>>>>>>>>>>>>>>>>>>>>//
  //              Dimer HF             //
  //<<<<<<<<<<<<<<<<<<<<<<<<<<<<<<<<<<<//

   => Libint2 <=

    Primary   basis highest AM E, G, H:  6, 6, 3
    Auxiliary basis highest AM E, G, H:  7, 7, 4
    Onebody   basis highest AM E, G, H:  -, -, -
    Solid Harmonics ordering:            Gaussian

*** tstart() called on cmpsrv002
*** at Thu Sep 26 15:25:33 2024

   => Loading Basis Set <=

    Name: THIS_BASIS
    Role: ORBITAL
    Keyword: BASIS
    atoms 1, 4-6 entry H          line    40 file /home/vance/anaconda3/envs/p4env/share/psi4/basis/aug-cc-pvqz.gbs 
    atoms 2      entry CL         line  1222 file /home/vance/anaconda3/envs/p4env/share/psi4/basis/aug-cc-pvqz.gbs 
    atoms 3      entry N          line   363 file /home/vance/anaconda3/envs/p4env/share/psi4/basis/aug-cc-pvqz.gbs 


         ---------------------------------------------------------
                                   SCF
               by Justin Turney, Rob Parrish, Andy Simmonett
                          and Daniel G. A. Smith
                              RHF Reference
                        4 Threads,   7629 MiB Core
         ---------------------------------------------------------

  ==> Geometry <==

    Molecular point group: c1
    Full point group: Cs

    Geometry (in Angstrom), charge = 0, multiplicity = 1:

       Center              X                  Y                   Z               Mass       
    ------------   -----------------  -----------------  -----------------  -----------------
         H           -0.000000190144    -0.036142183656     0.000000000000     1.007825032230
         CL          -0.000000190144     1.307207816344     0.000000000000    34.968852682000
         N           -0.000000190144    -2.618832183656     0.000000000000    14.003074004430
         H           -0.473180190144    -2.977842183656     0.819580000000     1.007825032230
         H           -0.473180190144    -2.977842183656    -0.819580000000     1.007825032230
         H            0.946369809856    -2.977842183656     0.000000000000     1.007825032230

  Running in c1 symmetry.

  Rotational constants: A =      6.22544  B =      0.09164  C =      0.09164 [cm^-1]
  Rotational constants: A = 186633.95025  B =   2747.25844  C =   2747.25832 [MHz]
  Nuclear repulsion =   42.781812637227944

  Charge       = 0
  Multiplicity = 1
  Electrons    = 28
  Nalpha       = 14
  Nbeta        = 14

  ==> Algorithm <==

  SCF Algorithm Type is DF.
  DIIS enabled.
  MOM disabled.
  Fractional occupation disabled.
  Guess Type is SAD.
  Energy threshold   = 1.00e-08
  Density threshold  = 1.00e-08
  Integral threshold = 1.00e-12

  ==> Primary Basis <==

  Basis Set: THIS_BASIS
    Blend: AUG-CC-PVQZ
    Number of shells: 98
    Number of basis functions: 348
    Number of Cartesian functions: 434
    Spherical Harmonics?: true
    Max angular momentum: 4

   => Loading Basis Set <=

    Name: (THIS_BASIS AUX)
    Role: JKFIT
    Keyword: DF_BASIS_SCF
    atoms 1, 4-6 entry H          line    70 file /home/vance/anaconda3/envs/p4env/share/psi4/basis/aug-cc-pvqz-jkfit.gbs 
    atoms 2      entry CL         line   904 file /home/vance/anaconda3/envs/p4env/share/psi4/basis/aug-cc-pvqz-jkfit.gbs 
    atoms 3      entry N          line   248 file /home/vance/anaconda3/envs/p4env/share/psi4/basis/aug-cc-pvqz-jkfit.gbs 

  ==> Integral Setup <==

  ==> DiskDFJK: Density-Fitted J/K Matrices <==

    J tasked:                  Yes
    K tasked:                  Yes
    wK tasked:                  No
    OpenMP threads:              4
    Integrals threads:           4
    Memory [MiB]:             5722
    Algorithm:                Core
    Integral Cache:           SAVE
    Schwarz Cutoff:          1E-12
    Fitting Condition:       1E-10

   => Auxiliary Basis Set <=

  Basis Set: (THIS_BASIS AUX)
    Blend: AUG-CC-PVQZ-JKFIT
    Number of shells: 152
    Number of basis functions: 630
    Number of Cartesian functions: 849
    Spherical Harmonics?: true
    Max angular momentum: 5

  Minimum eigenvalue in the overlap matrix is 2.6014731323E-05.
  Reciprocal condition number of the overlap matrix is 2.4340395276E-06.
    Using symmetric orthogonalization.

  ==> Pre-Iterations <==

  SCF Guess: Superposition of Atomic Densities via on-the-fly atomic UHF (no occupation information).

   -------------------------
    Irrep   Nso     Nmo    
   -------------------------
     A        348     348 
   -------------------------
    Total     348     348
   -------------------------

  ==> Iterations <==

                           Total Energy        Delta E     RMS |[F,P]|

   @DF-RHF iter SAD:  -515.54063955719039   -5.15541e+02   0.00000e+00 
   @DF-RHF iter   1:  -516.22894281208562   -6.88303e-01   1.39691e-03 ADIIS/DIIS
   @DF-RHF iter   2:  -516.31082731179436   -8.18845e-02   7.64036e-04 ADIIS/DIIS
   @DF-RHF iter   3:  -516.33799574838508   -2.71684e-02   9.00019e-05 DIIS
   @DF-RHF iter   4:  -516.33898149040101   -9.85742e-04   2.99457e-05 DIIS
   @DF-RHF iter   5:  -516.33906499718273   -8.35068e-05   7.52119e-06 DIIS
   @DF-RHF iter   6:  -516.33907472571377   -9.72853e-06   1.66360e-06 DIIS
   @DF-RHF iter   7:  -516.33907534066566   -6.14952e-07   4.26301e-07 DIIS
   @DF-RHF iter   8:  -516.33907537316861   -3.25030e-08   8.35535e-08 DIIS
   @DF-RHF iter   9:  -516.33907537417485   -1.00624e-09   1.85175e-08 DIIS
   @DF-RHF iter  10:  -516.33907537422658   -5.17275e-11   4.04652e-09 DIIS
  Energy and wave function converged.


  ==> Post-Iterations <==

    Orbital Energies [Eh]
    ---------------------

    Doubly Occupied:                                                      

       1A   -104.828424     2A    -15.560257     3A    -10.552958  
       4A     -8.020080     5A     -8.018514     6A     -8.018514  
       7A     -1.160470     8A     -1.083830     9A     -0.651106  
      10A     -0.651104    11A     -0.589750    12A     -0.454966  
      13A     -0.454966    14A     -0.448557  

    Virtual:                                                              

      15A      0.021024    16A      0.039952    17A      0.039953  
      18A      0.047815    19A      0.104754    20A      0.109536  
      21A      0.109536    22A      0.117187    23A      0.131727  
      24A      0.131727    25A      0.132913    26A      0.159571  
      27A      0.174309    28A      0.174310    29A      0.190594  
      30A      0.190595    31A      0.215326    32A      0.275135  
      33A      0.275135    34A      0.275394    35A      0.275547  
      36A      0.292520    37A      0.292521    38A      0.315288  
      39A      0.315288    40A      0.320506    41A      0.338993  
      42A      0.350974    43A      0.364551    44A      0.364551  
      45A      0.386739    46A      0.386740    47A      0.416936  
      48A      0.416936    49A      0.443079    50A      0.455811  
      51A      0.475378    52A      0.475379    53A      0.476370  
      54A      0.538339    55A      0.538339    56A      0.581615  
      57A      0.581615    58A      0.604531    59A      0.627303  
      60A      0.656338    61A      0.656338    62A      0.673409  
      63A      0.673409    64A      0.688050    65A      0.713094  
      66A      0.721728    67A      0.721728    68A      0.737411  
      69A      0.740521    70A      0.740521    71A      0.746607  
      72A      0.746607    73A      0.757475    74A      0.778821  
      75A      0.779550    76A      0.779551    77A      0.825167  
      78A      0.825168    79A      0.839605    80A      0.840689  
      81A      0.862266    82A      0.879368    83A      0.879368  
      84A      0.908658    85A      0.908658    86A      0.938481  
      87A      0.971088    88A      0.971089    89A      0.976044  
      90A      0.999525    91A      0.999526    92A      1.033052  
      93A      1.053807    94A      1.053807    95A      1.109692  
      96A      1.155509    97A      1.155510    98A      1.209187  
      99A      1.251252   100A      1.251252   101A      1.279861  
     102A      1.355345   103A      1.380093   104A      1.380093  
     105A      1.401730   106A      1.432089   107A      1.433115  
     108A      1.433115   109A      1.461008   110A      1.461008  
     111A      1.485708   112A      1.529489   113A      1.541444  
     114A      1.541446   115A      1.586940   116A      1.624229  
     117A      1.634405   118A      1.663811   119A      1.663811  
     120A      1.692594   121A      1.703398   122A      1.703398  
     123A      1.731921   124A      1.731921   125A      1.765012  
     126A      1.788942   127A      1.788942   128A      1.792606  
     129A      1.792607   130A      1.832782   131A      1.832782  
     132A      1.836451   133A      1.859347   134A      1.883353  
     135A      1.883354   136A      1.886463   137A      1.886463  
     138A      1.897526   139A      1.897526   140A      1.929578  
     141A      1.975447   142A      1.975448   143A      2.001880  
     144A      2.001881   145A      2.029431   146A      2.029673  
     147A      2.064911   148A      2.064912   149A      2.067766  
     150A      2.077683   151A      2.078653   152A      2.102000  
     153A      2.102000   154A      2.108154   155A      2.131265  
     156A      2.131266   157A      2.136730   158A      2.159449  
     159A      2.165721   160A      2.165721   161A      2.223257  
     162A      2.242414   163A      2.242414   164A      2.326052  
     165A      2.349579   166A      2.349580   167A      2.355777  
     168A      2.424351   169A      2.453426   170A      2.453427  
     171A      2.545937   172A      2.545938   173A      2.682301  
     174A      2.757752   175A      2.757753   176A      2.838952  
     177A      2.904100   178A      2.904102   179A      2.916500  
     180A      2.927624   181A      2.940117   182A      2.940118  
     183A      2.973980   184A      2.973981   185A      3.012663  
     186A      3.086554   187A      3.113290   188A      3.121870  
     189A      3.121871   190A      3.150649   191A      3.150649  
     192A      3.202332   193A      3.202332   194A      3.272014  
     195A      3.272016   196A      3.285795   197A      3.318517  
     198A      3.318517   199A      3.466314   200A      3.466315  
     201A      3.477812   202A      3.553896   203A      3.553896  
     204A      3.570568   205A      3.673517   206A      3.680361  
     207A      3.798119   208A      3.798119   209A      3.881767  
     210A      3.967877   211A      3.967877   212A      4.034935  
     213A      4.143517   214A      4.143522   215A      4.162684  
     216A      4.203869   217A      4.203873   218A      4.211750  
     219A      4.220736   220A      4.233478   221A      4.348181  
     222A      4.348181   223A      4.412654   224A      4.412656  
     225A      4.542312   226A      4.542312   227A      4.627808  
     228A      4.686345   229A      4.686345   230A      4.724313  
     231A      4.724437   232A      4.734177   233A      4.741119  
     234A      4.741119   235A      4.745136   236A      4.745137  
     237A      4.757127   238A      4.757442   239A      4.842781  
     240A      4.842781   241A      4.920518   242A      4.920518  
     243A      4.985724   244A      4.985725   245A      5.082137  
     246A      5.173394   247A      5.190995   248A      5.190997  
     249A      5.375424   250A      5.375425   251A      5.461842  
     252A      5.466852   253A      5.466852   254A      5.572401  
     255A      5.681020   256A      6.459486   257A      6.459486  
     258A      6.600803   259A      6.600845   260A      6.832511  
     261A      6.832512   262A      6.861992   263A      6.954403  
     264A      6.954405   265A      7.027280   266A      7.027280  
     267A      7.143498   268A      7.197720   269A      7.353781  
     270A      7.407216   271A      7.407219   272A      7.483359  
     273A      7.483360   274A      7.595114   275A      7.618629  
     276A      7.618629   277A      7.657431   278A      7.708819  
     279A      7.708827   280A      7.879802   281A      7.879805  
     282A      7.966700   283A      8.033312   284A      8.033317  
     285A      8.226286   286A      8.293974   287A      8.349857  
     288A      8.360371   289A      8.360374   290A      8.556829  
     291A      8.580527   292A      8.580531   293A      8.649426  
     294A      8.649429   295A      8.698075   296A      8.698075  
     297A      8.736305   298A      8.736309   299A      8.831974  
     300A      8.852709   301A      8.852710   302A      8.936007  
     303A      8.943373   304A      9.006603   305A      9.008087  
     306A      9.015476   307A      9.015481   308A      9.313580  
     309A      9.313587   310A      9.364842   311A      9.432502  
     312A      9.432505   313A      9.464938   314A      9.464942  
     315A      9.543011   316A      9.543017   317A      9.620485  
     318A      9.729204   319A      9.832932   320A      9.916265  
     321A      9.916272   322A     10.010732   323A     10.095327  
     324A     10.095331   325A     10.160773   326A     10.281574  
     327A     10.281583   328A     10.545346   329A     10.545350  
     330A     10.830086   331A     10.858828   332A     10.999049  
     333A     10.999052   334A     11.162443   335A     11.775348  
     336A     12.189621   337A     12.189628   338A     12.255737  
     339A     12.330545   340A     12.330559   341A     13.051281  
     342A     13.121820   343A     13.121830   344A     14.863463  
     345A     15.083498   346A     15.083509   347A     26.068300  
     348A     36.670719  

    Final Occupation by Irrep:
              A 
    DOCC [    14 ]
    NA   [    14 ]
    NB   [    14 ]

  @DF-RHF Final Energy:  -516.33907537422658

   => Energetics <=

    Nuclear Repulsion Energy =             42.7818126372279437
    One-Electron Energy =                -797.2547808105281320
    Two-Electron Energy =                 238.1338927990735783
    Total Energy =                       -516.3390753742265815

Computation Completed


Properties will be evaluated at   0.000000,   0.000000,   0.000000 [a0]

Properties computed using the SCF density matrix


 Multipole Moments:

 ------------------------------------------------------------------------------------
     Multipole            Electronic (a.u.)      Nuclear  (a.u.)        Total (a.u.)
 ------------------------------------------------------------------------------------

 L = 1.  Multiply by 2.5417464519 to convert [e a0] to [Debye]
 Dipole X            :         -0.0000061            0.0000088            0.0000028
 Dipole Y            :          8.2420245           -9.5978456           -1.3558211
 Dipole Z            :         -0.0000000            0.0000000           -0.0000000
 Magnitude           :                                                    1.3558211

 ------------------------------------------------------------------------------------

*** tstop() called on cmpsrv002 at Thu Sep 26 15:25:47 2024
Module time:
	user time   =      23.44 seconds =       0.39 minutes
	system time =       3.02 seconds =       0.05 minutes
	total time  =         14 seconds =       0.23 minutes
Total time:
	user time   =      23.44 seconds =       0.39 minutes
	system time =       3.02 seconds =       0.05 minutes
	total time  =         14 seconds =       0.23 minutes

*** tstart() called on cmpsrv002
*** at Thu Sep 26 15:25:47 2024


  //>>>>>>>>>>>>>>>>>>>>>>>>>>>>>>>>>>>//
  //               DFMP2               //
  //<<<<<<<<<<<<<<<<<<<<<<<<<<<<<<<<<<<//

   => Loading Basis Set <=

    Name: (THIS_BASIS AUX)
    Role: RIFIT
    Keyword: DF_BASIS_MP2
    atoms 1, 4-6 entry H          line    30 file /home/vance/anaconda3/envs/p4env/share/psi4/basis/aug-cc-pvqz-ri.gbs 
    atoms 2      entry CL         line   914 file /home/vance/anaconda3/envs/p4env/share/psi4/basis/aug-cc-pvqz-ri.gbs 
    atoms 3      entry N          line   258 file /home/vance/anaconda3/envs/p4env/share/psi4/basis/aug-cc-pvqz-ri.gbs 

	 --------------------------------------------------------
	                          DF-MP2                         
	      2nd-Order Density-Fitted Moller-Plesset Theory     
	              RMP2 Wavefunction,   4 Threads             
	                                                         
	        Rob Parrish, Justin Turney, Andy Simmonett,      
	           Ed Hohenstein, and C. David Sherrill          
	 --------------------------------------------------------

   => Auxiliary Basis Set <=

  Basis Set: (THIS_BASIS AUX)
    Blend: AUG-CC-PVQZ-RI
    Number of shells: 160
    Number of basis functions: 682
    Number of Cartesian functions: 925
    Spherical Harmonics?: true
    Max angular momentum: 5

	 --------------------------------------------------------
	                 NBF =   348, NAUX =   682
	 --------------------------------------------------------
	   CLASS    FOCC     OCC    AOCC    AVIR     VIR    FVIR
	   PAIRS       0      14      14     334     334       0
	 --------------------------------------------------------

	 Will save fitting metric to file 97.

	-----------------------------------------------------------
	 ==================> DF-MP2 Energies <==================== 
	-----------------------------------------------------------
	 Reference Energy          =    -516.3390753742265815 [Eh]
	 Singles Energy            =      -0.0000000000000000 [Eh]
	 Same-Spin Energy          =      -0.1297372940346807 [Eh]
	 Opposite-Spin Energy      =      -0.4453646587662469 [Eh]
	 Correlation Energy        =      -0.5751019528009276 [Eh]
	 Total Energy              =    -516.9141773270274598 [Eh]
	-----------------------------------------------------------
	 ================> DF-SCS-MP2 Energies <================== 
	-----------------------------------------------------------
	 SCS Same-Spin Scale       =       0.3333333333333333 [-]
	 SCS Opposite-Spin Scale   =       1.2000000000000000 [-]
	 SCS Same-Spin Energy      =      -0.0432457646782269 [Eh]
	 SCS Opposite-Spin Energy  =      -0.5344375905194962 [Eh]
	 SCS Correlation Energy    =      -0.5776833551977232 [Eh]
	 SCS Total Energy          =    -516.9167587294242594 [Eh]
	-----------------------------------------------------------


*** tstop() called on cmpsrv002 at Thu Sep 26 15:25:54 2024
Module time:
	user time   =       5.88 seconds =       0.10 minutes
	system time =       1.09 seconds =       0.02 minutes
	total time  =          7 seconds =       0.12 minutes
Total time:
	user time   =      29.32 seconds =       0.49 minutes
	system time =       4.11 seconds =       0.07 minutes
	total time  =         21 seconds =       0.35 minutes

  //>>>>>>>>>>>>>>>>>>>>>>>>>>>>>>>>>>>//
  //            Monomer A HF           //
  //<<<<<<<<<<<<<<<<<<<<<<<<<<<<<<<<<<<//

   => Libint2 <=

    Primary   basis highest AM E, G, H:  6, 6, 3
    Auxiliary basis highest AM E, G, H:  7, 7, 4
    Onebody   basis highest AM E, G, H:  -, -, -
    Solid Harmonics ordering:            Gaussian

*** tstart() called on cmpsrv002
*** at Thu Sep 26 15:25:54 2024

   => Loading Basis Set <=

    Name: THIS_BASIS
    Role: ORBITAL
    Keyword: BASIS
    atoms 1, 4-6 entry H          line    40 file /home/vance/anaconda3/envs/p4env/share/psi4/basis/aug-cc-pvqz.gbs 
    atoms 2      entry CL         line  1222 file /home/vance/anaconda3/envs/p4env/share/psi4/basis/aug-cc-pvqz.gbs 
    atoms 3      entry N          line   363 file /home/vance/anaconda3/envs/p4env/share/psi4/basis/aug-cc-pvqz.gbs 


         ---------------------------------------------------------
                                   SCF
               by Justin Turney, Rob Parrish, Andy Simmonett
                          and Daniel G. A. Smith
                              RHF Reference
                        4 Threads,   7629 MiB Core
         ---------------------------------------------------------

  ==> Geometry <==

    Molecular point group: c1
    Full point group: Cs

    Geometry (in Angstrom), charge = 0, multiplicity = 1:

       Center              X                  Y                   Z               Mass       
    ------------   -----------------  -----------------  -----------------  -----------------
         H           -0.000000190144    -0.036142183656     0.000000000000     1.007825032230
         CL          -0.000000190144     1.307207816344     0.000000000000    34.968852682000
      Gh(N)          -0.000000190144    -2.618832183656     0.000000000000    14.003074004430
      Gh(H)          -0.473180190144    -2.977842183656     0.819580000000     1.007825032230
      Gh(H)          -0.473180190144    -2.977842183656    -0.819580000000     1.007825032230
      Gh(H)           0.946369809856    -2.977842183656     0.000000000000     1.007825032230

  Running in c1 symmetry.

  Rotational constants: A =      6.22544  B =      0.09164  C =      0.09164 [cm^-1]
  Rotational constants: A = 186633.95025  B =   2747.25844  C =   2747.25832 [MHz]
  Nuclear repulsion =    6.696700473733579

  Charge       = 0
  Multiplicity = 1
  Electrons    = 18
  Nalpha       = 9
  Nbeta        = 9

  ==> Algorithm <==

  SCF Algorithm Type is DF.
  DIIS enabled.
  MOM disabled.
  Fractional occupation disabled.
  Guess Type is SAD.
  Energy threshold   = 1.00e-08
  Density threshold  = 1.00e-08
  Integral threshold = 1.00e-12

  ==> Primary Basis <==

  Basis Set: THIS_BASIS
    Blend: AUG-CC-PVQZ
    Number of shells: 98
    Number of basis functions: 348
    Number of Cartesian functions: 434
    Spherical Harmonics?: true
    Max angular momentum: 4

   => Loading Basis Set <=

    Name: (THIS_BASIS AUX)
    Role: JKFIT
    Keyword: DF_BASIS_SCF
    atoms 1, 4-6 entry H          line    70 file /home/vance/anaconda3/envs/p4env/share/psi4/basis/aug-cc-pvqz-jkfit.gbs 
    atoms 2      entry CL         line   904 file /home/vance/anaconda3/envs/p4env/share/psi4/basis/aug-cc-pvqz-jkfit.gbs 
    atoms 3      entry N          line   248 file /home/vance/anaconda3/envs/p4env/share/psi4/basis/aug-cc-pvqz-jkfit.gbs 

  ==> Integral Setup <==

  ==> DiskDFJK: Density-Fitted J/K Matrices <==

    J tasked:                  Yes
    K tasked:                  Yes
    wK tasked:                  No
    OpenMP threads:              4
    Integrals threads:           4
    Memory [MiB]:             5722
    Algorithm:                Core
    Integral Cache:           LOAD
    Schwarz Cutoff:          1E-12
    Fitting Condition:       1E-10

   => Auxiliary Basis Set <=

  Basis Set: (THIS_BASIS AUX)
    Blend: AUG-CC-PVQZ-JKFIT
    Number of shells: 152
    Number of basis functions: 630
    Number of Cartesian functions: 849
    Spherical Harmonics?: true
    Max angular momentum: 5

  Minimum eigenvalue in the overlap matrix is 2.6014731323E-05.
  Reciprocal condition number of the overlap matrix is 2.4340395276E-06.
    Using symmetric orthogonalization.

  ==> Pre-Iterations <==

  SCF Guess: Superposition of Atomic Densities via on-the-fly atomic UHF (no occupation information).

   -------------------------
    Irrep   Nso     Nmo    
   -------------------------
     A        348     348 
   -------------------------
    Total     348     348
   -------------------------

  ==> Iterations <==

                           Total Energy        Delta E     RMS |[F,P]|

   @DF-RHF iter SAD:  -459.87084648787504   -4.59871e+02   0.00000e+00 
   @DF-RHF iter   1:  -460.08496053476716   -2.14114e-01   5.44790e-04 ADIIS/DIIS
   @DF-RHF iter   2:  -460.10487389048734   -1.99134e-02   2.29770e-04 ADIIS/DIIS
   @DF-RHF iter   3:  -460.10763490298922   -2.76101e-03   4.35444e-05 DIIS
   @DF-RHF iter   4:  -460.10797951610067   -3.44613e-04   1.24766e-05 DIIS
   @DF-RHF iter   5:  -460.10801286252479   -3.33464e-05   1.75439e-06 DIIS
   @DF-RHF iter   6:  -460.10801343721494   -5.74690e-07   3.76060e-07 DIIS
   @DF-RHF iter   7:  -460.10801345149298   -1.42780e-08   8.61266e-08 DIIS
   @DF-RHF iter   8:  -460.10801345264355   -1.15057e-09   1.68676e-08 DIIS
   @DF-RHF iter   9:  -460.10801345268663   -4.30873e-11   1.74986e-09 DIIS
  Energy and wave function converged.


  ==> Post-Iterations <==

    Orbital Energies [Eh]
    ---------------------

    Doubly Occupied:                                                      

       1A   -104.852109     2A    -10.576168     3A     -8.043300  
       4A     -8.041581     5A     -8.041581     6A     -1.105227  
       7A     -0.610917     8A     -0.475378     9A     -0.475378  

    Virtual:                                                              

      10A      0.018019    11A      0.041551    12A      0.041551  
      13A      0.042535    14A      0.082619    15A      0.100310  
      16A      0.103146    17A      0.103146    18A      0.121441  
      19A      0.123442    20A      0.123442    21A      0.149728  
      22A      0.187225    23A      0.187225    24A      0.195238  
      25A      0.201679    26A      0.201680    27A      0.264495  
      28A      0.266012    29A      0.266012    30A      0.280479  
      31A      0.282629    32A      0.282629    33A      0.284305  
      34A      0.296203    35A      0.296412    36A      0.296412  
      37A      0.337476    38A      0.363859    39A      0.363859  
      40A      0.388300    41A      0.388300    42A      0.433316  
      43A      0.434385    44A      0.434385    45A      0.456836  
      46A      0.486886    47A      0.514293    48A      0.514293  
      49A      0.534097    50A      0.573116    51A      0.573116  
      52A      0.577446    53A      0.616748    54A      0.616749  
      55A      0.624824    56A      0.642636    57A      0.642636  
      58A      0.653280    59A      0.653280    60A      0.660200  
      61A      0.660200    62A      0.700797    63A      0.727633  
      64A      0.731117    65A      0.731117    66A      0.744456  
      67A      0.744456    68A      0.750153    69A      0.777598  
      70A      0.825580    71A      0.826319    72A      0.827644  
      73A      0.827644    74A      0.849587    75A      0.849587  
      76A      0.871087    77A      0.886334    78A      0.886335  
      79A      0.905089    80A      0.961522    81A      0.972975  
      82A      0.972975    83A      1.002319    84A      1.002320  
      85A      1.022642    86A      1.022642    87A      1.065247  
      88A      1.119510    89A      1.136308    90A      1.140493  
      91A      1.140493    92A      1.171372    93A      1.171373  
      94A      1.210420    95A      1.261863    96A      1.283182  
      97A      1.283182    98A      1.316640    99A      1.316640  
     100A      1.317175   101A      1.386763   102A      1.386763  
     103A      1.427616   104A      1.437361   105A      1.487690  
     106A      1.487691   107A      1.538475   108A      1.543071  
     109A      1.604855   110A      1.626101   111A      1.633008  
     112A      1.633009   113A      1.696276   114A      1.696276  
     115A      1.723660   116A      1.745859   117A      1.745859  
     118A      1.764979   119A      1.764979   120A      1.770217  
     121A      1.828188   122A      1.828188   123A      1.832003  
     124A      1.838617   125A      1.838618   126A      1.869605  
     127A      1.869605   128A      1.881861   129A      1.888750  
     130A      1.888751   131A      1.910159   132A      1.910160  
     133A      1.916682   134A      1.934881   135A      1.934882  
     136A      2.006387   137A      2.006388   138A      2.014766  
     139A      2.026751   140A      2.026752   141A      2.056137  
     142A      2.057612   143A      2.063065   144A      2.068063  
     145A      2.079400   146A      2.089034   147A      2.089034  
     148A      2.118173   149A      2.118813   150A      2.118813  
     151A      2.171167   152A      2.171168   153A      2.193876  
     154A      2.201820   155A      2.201820   156A      2.238921  
     157A      2.262965   158A      2.300014   159A      2.319096  
     160A      2.319098   161A      2.353962   162A      2.363528  
     163A      2.363528   164A      2.410904   165A      2.410904  
     166A      2.470435   167A      2.555008   168A      2.555009  
     169A      2.657191   170A      2.739916   171A      2.739917  
     172A      2.759691   173A      2.882791   174A      2.882794  
     175A      2.918067   176A      3.053501   177A      3.053501  
     178A      3.124876   179A      3.177228   180A      3.177228  
     181A      3.196632   182A      3.202030   183A      3.202032  
     184A      3.273837   185A      3.282870   186A      3.282871  
     187A      3.298677   188A      3.314025   189A      3.314025  
     190A      3.337803   191A      3.469976   192A      3.469976  
     193A      3.491131   194A      3.491132   195A      3.516151  
     196A      3.685838   197A      3.688052   198A      3.688054  
     199A      3.784734   200A      3.803996   201A      3.803997  
     202A      3.808816   203A      3.923176   204A      3.923177  
     205A      3.987305   206A      4.006918   207A      4.006919  
     208A      4.080788   209A      4.180000   210A      4.180003  
     211A      4.266610   212A      4.328648   213A      4.328648  
     214A      4.379779   215A      4.406635   216A      4.406635  
     217A      4.423853   218A      4.456566   219A      4.456568  
     220A      4.526785   221A      4.526785   222A      4.554735  
     223A      4.666760   224A      4.666760   225A      4.701676  
     226A      4.704558   227A      4.706534   228A      4.721890  
     229A      4.721890   230A      4.736701   231A      4.736936  
     232A      4.779181   233A      4.779183   234A      4.817987  
     235A      4.817987   236A      4.895184   237A      4.895184  
     238A      4.984030   239A      5.059701   240A      5.179062  
     241A      5.429177   242A      5.429177   243A      5.476853  
     244A      5.476856   245A      5.577375   246A      5.787186  
     247A      5.787191   248A      5.815907   249A      5.863196  
     250A      5.958135   251A      5.958137   252A      6.379625  
     253A      6.402008   254A      6.402011   255A      6.540220  
     256A      6.540221   257A      6.575061   258A      6.575729  
     259A      7.002032   260A      7.002032   261A      7.112275  
     262A      7.112276   263A      7.116876   264A      7.170019  
     265A      7.247646   266A      7.247648   267A      7.407548  
     268A      7.589829   269A      7.589829   270A      7.788996  
     271A      7.936605   272A      7.936610   273A      8.160223  
     274A      8.160224   275A      8.166287   276A      8.178729  
     277A      8.264172   278A      8.281799   279A      8.281802  
     280A      8.349651   281A      8.477355   282A      8.477357  
     283A      8.576877   284A      8.576879   285A      8.606334  
     286A      8.650099   287A      8.650099   288A      8.707463  
     289A      8.707463   290A      8.888165   291A      9.022607  
     292A      9.022613   293A      9.184095   294A      9.191980  
     295A      9.191980   296A      9.297208   297A      9.300464  
     298A      9.300466   299A      9.454015   300A      9.454015  
     301A      9.508443   302A      9.541826   303A      9.563102  
     304A      9.563103   305A      9.575603   306A      9.773653  
     307A      9.921936   308A      9.985399   309A      9.985405  
     310A     10.150612   311A     10.150619   312A     10.459840  
     313A     10.459849   314A     10.475602   315A     10.567012  
     316A     10.657197   317A     10.657206   318A     10.763236  
     319A     10.785547   320A     10.785548   321A     10.952496  
     322A     11.145707   323A     11.350851   324A     11.350854  
     325A     11.882858   326A     11.882869   327A     12.009577  
     328A     12.142315   329A     12.531437   330A     12.531454  
     331A     13.178715   332A     13.178725   333A     13.356446  
     334A     14.029032   335A     14.145626   336A     14.486341  
     337A     14.486351   338A     14.694943   339A     14.694947  
     340A     16.065616   341A     16.065628   342A     16.167879  
     343A     18.281249   344A     19.570123   345A     21.823120  
     346A     21.823159   347A     26.047764   348A     96.243080  

    Final Occupation by Irrep:
              A 
    DOCC [     9 ]
    NA   [     9 ]
    NB   [     9 ]

  @DF-RHF Final Energy:  -460.10801345268663

   => Energetics <=

    Nuclear Repulsion Energy =              6.6967004737335794
    One-Electron Energy =                -649.1661536493917311
    Two-Electron Energy =                 182.3614397229714825
    Total Energy =                       -460.1080134526866914

Computation Completed


Properties will be evaluated at   0.000000,   0.000000,   0.000000 [a0]

Properties computed using the SCF density matrix


 Multipole Moments:

 ------------------------------------------------------------------------------------
     Multipole            Electronic (a.u.)      Nuclear  (a.u.)        Total (a.u.)
 ------------------------------------------------------------------------------------

 L = 1.  Multiply by 2.5417464519 to convert [e a0] to [Debye]
 Dipole X            :          0.0000065           -0.0000065            0.0000000
 Dipole Y            :        -42.4250133           41.9262021           -0.4988111
 Dipole Z            :          0.0000000            0.0000000            0.0000000
 Magnitude           :                                                    0.4988111

 ------------------------------------------------------------------------------------

*** tstop() called on cmpsrv002 at Thu Sep 26 15:26:10 2024
Module time:
	user time   =      21.57 seconds =       0.36 minutes
	system time =       2.55 seconds =       0.04 minutes
	total time  =         16 seconds =       0.27 minutes
Total time:
	user time   =      50.90 seconds =       0.85 minutes
	system time =       6.66 seconds =       0.11 minutes
	total time  =         37 seconds =       0.62 minutes

*** tstart() called on cmpsrv002
*** at Thu Sep 26 15:26:10 2024


  //>>>>>>>>>>>>>>>>>>>>>>>>>>>>>>>>>>>//
  //               DFMP2               //
  //<<<<<<<<<<<<<<<<<<<<<<<<<<<<<<<<<<<//

   => Loading Basis Set <=

    Name: (THIS_BASIS AUX)
    Role: RIFIT
    Keyword: DF_BASIS_MP2
    atoms 1, 4-6 entry H          line    30 file /home/vance/anaconda3/envs/p4env/share/psi4/basis/aug-cc-pvqz-ri.gbs 
    atoms 2      entry CL         line   914 file /home/vance/anaconda3/envs/p4env/share/psi4/basis/aug-cc-pvqz-ri.gbs 
    atoms 3      entry N          line   258 file /home/vance/anaconda3/envs/p4env/share/psi4/basis/aug-cc-pvqz-ri.gbs 

	 --------------------------------------------------------
	                          DF-MP2                         
	      2nd-Order Density-Fitted Moller-Plesset Theory     
	              RMP2 Wavefunction,   4 Threads             
	                                                         
	        Rob Parrish, Justin Turney, Andy Simmonett,      
	           Ed Hohenstein, and C. David Sherrill          
	 --------------------------------------------------------

   => Auxiliary Basis Set <=

  Basis Set: (THIS_BASIS AUX)
    Blend: AUG-CC-PVQZ-RI
    Number of shells: 160
    Number of basis functions: 682
    Number of Cartesian functions: 925
    Spherical Harmonics?: true
    Max angular momentum: 5

	 --------------------------------------------------------
	                 NBF =   348, NAUX =   682
	 --------------------------------------------------------
	   CLASS    FOCC     OCC    AOCC    AVIR     VIR    FVIR
	   PAIRS       0       9       9     339     339       0
	 --------------------------------------------------------

	 Will attempt to load fitting metric from file 97.

	-----------------------------------------------------------
	 ==================> DF-MP2 Energies <==================== 
	-----------------------------------------------------------
	 Reference Energy          =    -460.1080134526866345 [Eh]
	 Singles Energy            =      -0.0000000000000000 [Eh]
	 Same-Spin Energy          =      -0.0693072780833804 [Eh]
	 Opposite-Spin Energy      =      -0.2200144998438177 [Eh]
	 Correlation Energy        =      -0.2893217779271982 [Eh]
	 Total Energy              =    -460.3973352306138054 [Eh]
	-----------------------------------------------------------
	 ================> DF-SCS-MP2 Energies <================== 
	-----------------------------------------------------------
	 SCS Same-Spin Scale       =       0.3333333333333333 [-]
	 SCS Opposite-Spin Scale   =       1.2000000000000000 [-]
	 SCS Same-Spin Energy      =      -0.0231024260277935 [Eh]
	 SCS Opposite-Spin Energy  =      -0.2640173998125813 [Eh]
	 SCS Correlation Energy    =      -0.2871198258403748 [Eh]
	 SCS Total Energy          =    -460.3951332785269983 [Eh]
	-----------------------------------------------------------


*** tstop() called on cmpsrv002 at Thu Sep 26 15:26:14 2024
Module time:
	user time   =       5.08 seconds =       0.08 minutes
	system time =       0.88 seconds =       0.01 minutes
	total time  =          4 seconds =       0.07 minutes
Total time:
	user time   =      55.98 seconds =       0.93 minutes
	system time =       7.54 seconds =       0.13 minutes
	total time  =         41 seconds =       0.68 minutes

  //>>>>>>>>>>>>>>>>>>>>>>>>>>>>>>>>>>>//
  //            Monomer B HF           //
  //<<<<<<<<<<<<<<<<<<<<<<<<<<<<<<<<<<<//

   => Libint2 <=

    Primary   basis highest AM E, G, H:  6, 6, 3
    Auxiliary basis highest AM E, G, H:  7, 7, 4
    Onebody   basis highest AM E, G, H:  -, -, -
    Solid Harmonics ordering:            Gaussian

*** tstart() called on cmpsrv002
*** at Thu Sep 26 15:26:14 2024

   => Loading Basis Set <=

    Name: THIS_BASIS
    Role: ORBITAL
    Keyword: BASIS
    atoms 1, 4-6 entry H          line    40 file /home/vance/anaconda3/envs/p4env/share/psi4/basis/aug-cc-pvqz.gbs 
    atoms 2      entry CL         line  1222 file /home/vance/anaconda3/envs/p4env/share/psi4/basis/aug-cc-pvqz.gbs 
    atoms 3      entry N          line   363 file /home/vance/anaconda3/envs/p4env/share/psi4/basis/aug-cc-pvqz.gbs 


         ---------------------------------------------------------
                                   SCF
               by Justin Turney, Rob Parrish, Andy Simmonett
                          and Daniel G. A. Smith
                              RHF Reference
                        4 Threads,   7629 MiB Core
         ---------------------------------------------------------

  ==> Geometry <==

    Molecular point group: c1
    Full point group: Cs

    Geometry (in Angstrom), charge = 0, multiplicity = 1:

       Center              X                  Y                   Z               Mass       
    ------------   -----------------  -----------------  -----------------  -----------------
      Gh(H)          -0.000000190144    -0.036142183656     0.000000000000     1.007825032230
      Gh(CL)         -0.000000190144     1.307207816344     0.000000000000    34.968852682000
         N           -0.000000190144    -2.618832183656     0.000000000000    14.003074004430
         H           -0.473180190144    -2.977842183656     0.819580000000     1.007825032230
         H           -0.473180190144    -2.977842183656    -0.819580000000     1.007825032230
         H            0.946369809856    -2.977842183656     0.000000000000     1.007825032230

  Running in c1 symmetry.

  Rotational constants: A =      6.22544  B =      0.09164  C =      0.09164 [cm^-1]
  Rotational constants: A = 186633.95025  B =   2747.25844  C =   2747.25832 [MHz]
  Nuclear repulsion =   11.947542838505761

  Charge       = 0
  Multiplicity = 1
  Electrons    = 10
  Nalpha       = 5
  Nbeta        = 5

  ==> Algorithm <==

  SCF Algorithm Type is DF.
  DIIS enabled.
  MOM disabled.
  Fractional occupation disabled.
  Guess Type is SAD.
  Energy threshold   = 1.00e-08
  Density threshold  = 1.00e-08
  Integral threshold = 1.00e-12

  ==> Primary Basis <==

  Basis Set: THIS_BASIS
    Blend: AUG-CC-PVQZ
    Number of shells: 98
    Number of basis functions: 348
    Number of Cartesian functions: 434
    Spherical Harmonics?: true
    Max angular momentum: 4

   => Loading Basis Set <=

    Name: (THIS_BASIS AUX)
    Role: JKFIT
    Keyword: DF_BASIS_SCF
    atoms 1, 4-6 entry H          line    70 file /home/vance/anaconda3/envs/p4env/share/psi4/basis/aug-cc-pvqz-jkfit.gbs 
    atoms 2      entry CL         line   904 file /home/vance/anaconda3/envs/p4env/share/psi4/basis/aug-cc-pvqz-jkfit.gbs 
    atoms 3      entry N          line   248 file /home/vance/anaconda3/envs/p4env/share/psi4/basis/aug-cc-pvqz-jkfit.gbs 

  ==> Integral Setup <==

  ==> DiskDFJK: Density-Fitted J/K Matrices <==

    J tasked:                  Yes
    K tasked:                  Yes
    wK tasked:                  No
    OpenMP threads:              4
    Integrals threads:           4
    Memory [MiB]:             5722
    Algorithm:                Core
    Integral Cache:           LOAD
    Schwarz Cutoff:          1E-12
    Fitting Condition:       1E-10

   => Auxiliary Basis Set <=

  Basis Set: (THIS_BASIS AUX)
    Blend: AUG-CC-PVQZ-JKFIT
    Number of shells: 152
    Number of basis functions: 630
    Number of Cartesian functions: 849
    Spherical Harmonics?: true
    Max angular momentum: 5

  Minimum eigenvalue in the overlap matrix is 2.6014731323E-05.
  Reciprocal condition number of the overlap matrix is 2.4340395276E-06.
    Using symmetric orthogonalization.

  ==> Pre-Iterations <==

  SCF Guess: Superposition of Atomic Densities via on-the-fly atomic UHF (no occupation information).

   -------------------------
    Irrep   Nso     Nmo    
   -------------------------
     A        348     348 
   -------------------------
    Total     348     348
   -------------------------

  ==> Iterations <==

                           Total Energy        Delta E     RMS |[F,P]|

   @DF-RHF iter SAD:   -55.64205531301179   -5.56421e+01   0.00000e+00 
   @DF-RHF iter   1:   -56.12627075194838   -4.84215e-01   1.34284e-03 ADIIS/DIIS
   @DF-RHF iter   2:   -56.19507276389474   -6.88020e-02   7.78498e-04 ADIIS/DIIS
   @DF-RHF iter   3:   -56.22331786177902   -2.82451e-02   7.07453e-05 DIIS
   @DF-RHF iter   4:   -56.22395461731975   -6.36756e-04   1.32144e-05 DIIS
   @DF-RHF iter   5:   -56.22397583187671   -2.12146e-05   2.45346e-06 DIIS
   @DF-RHF iter   6:   -56.22397707091235   -1.23904e-06   6.40948e-07 DIIS
   @DF-RHF iter   7:   -56.22397715579230   -8.48799e-08   1.41154e-07 DIIS
   @DF-RHF iter   8:   -56.22397716011066   -4.31837e-09   2.09937e-08 DIIS
   @DF-RHF iter   9:   -56.22397716020584   -9.51772e-11   5.62274e-09 DIIS
  Energy and wave function converged.


  ==> Post-Iterations <==

    Orbital Energies [Eh]
    ---------------------

    Doubly Occupied:                                                      

       1A    -15.539186     2A     -1.139727     3A     -0.630914  
       4A     -0.630912     5A     -0.425447  

    Virtual:                                                              

       6A      0.025492     7A      0.039634     8A      0.043378  
       9A      0.043378    10A      0.093322    11A      0.093322  
      12A      0.098767    13A      0.116500    14A      0.132062  
      15A      0.138618    16A      0.138618    17A      0.140918  
      18A      0.183177    19A      0.183177    20A      0.202860  
      21A      0.202860    22A      0.250165    23A      0.283216  
      24A      0.288936    25A      0.295176    26A      0.295176  
      27A      0.300913    28A      0.300913    29A      0.312526  
      30A      0.318955    31A      0.318956    32A      0.333703  
      33A      0.356257    34A      0.356257    35A      0.359564  
      36A      0.381455    37A      0.391814    38A      0.391815  
      39A      0.419504    40A      0.419504    41A      0.469371  
      42A      0.473701    43A      0.473701    44A      0.521836  
      45A      0.521836    46A      0.528974    47A      0.559249  
      48A      0.559249    49A      0.593812    50A      0.609782  
      51A      0.699332    52A      0.705749    53A      0.729519  
      54A      0.729519    55A      0.741115    56A      0.749401  
      57A      0.751280    58A      0.751280    59A      0.768439  
      60A      0.768440    61A      0.791611    62A      0.791613  
      63A      0.791668    64A      0.822501    65A      0.822502  
      66A      0.862374    67A      0.867587    68A      0.871704  
      69A      0.888212    70A      0.888212    71A      0.901849  
      72A      0.901849    73A      0.926015    74A      0.960793  
      75A      0.960793    76A      0.966905    77A      0.983636  
      78A      0.983636    79A      0.993914    80A      0.993915  
      81A      1.032939    82A      1.032939    83A      1.050026  
      84A      1.058366    85A      1.058367    86A      1.101136  
      87A      1.132801    88A      1.132802    89A      1.183688  
      90A      1.219981    91A      1.259923    92A      1.259924  
      93A      1.298803    94A      1.298803    95A      1.355842  
      96A      1.371773    97A      1.433778    98A      1.433778  
      99A      1.443134   100A      1.488126   101A      1.488126  
     102A      1.508621   103A      1.549716   104A      1.552500  
     105A      1.552502   106A      1.568183   107A      1.610022  
     108A      1.664001   109A      1.664002   110A      1.680361  
     111A      1.693312   112A      1.695753   113A      1.705898  
     114A      1.705898   115A      1.781516   116A      1.781518  
     117A      1.809082   118A      1.809082   119A      1.826828  
     120A      1.856269   121A      1.862524   122A      1.862524  
     123A      1.909013   124A      1.909014   125A      1.928799  
     126A      1.950335   127A      1.950335   128A      1.980529  
     129A      1.980530   130A      2.015230   131A      2.050860  
     132A      2.097565   133A      2.108692   134A      2.108692  
     135A      2.120238   136A      2.120239   137A      2.136098  
     138A      2.136099   139A      2.153761   140A      2.161623  
     141A      2.206517   142A      2.206517   143A      2.214847  
     144A      2.238786   145A      2.238786   146A      2.253576  
     147A      2.330736   148A      2.340295   149A      2.361947  
     150A      2.361947   151A      2.377885   152A      2.386506  
     153A      2.424008   154A      2.424009   155A      2.486837  
     156A      2.492654   157A      2.492654   158A      2.516553  
     159A      2.516553   160A      2.527340   161A      2.586681  
     162A      2.586682   163A      2.860144   164A      2.860145  
     165A      2.860440   166A      2.887203   167A      2.887203  
     168A      2.901849   169A      2.901851   170A      2.934356  
     171A      2.963873   172A      2.963875   173A      2.989447  
     174A      3.000438   175A      3.000439   176A      3.000658  
     177A      3.100257   178A      3.132071   179A      3.138683  
     180A      3.138684   181A      3.169401   182A      3.183553  
     183A      3.183553   184A      3.255730   185A      3.287985  
     186A      3.287988   187A      3.360511   188A      3.360512  
     189A      3.459249   190A      3.459249   191A      3.484269  
     192A      3.502826   193A      3.502826   194A      3.531675  
     195A      3.588471   196A      3.588471   197A      3.621946  
     198A      3.621947   199A      3.633218   200A      3.692009  
     201A      3.883877   202A      3.966202   203A      3.966202  
     204A      3.987960   205A      4.149824   206A      4.149828  
     207A      4.178539   208A      4.225971   209A      4.225974  
     210A      4.231831   211A      4.237872   212A      4.343910  
     213A      4.343910   214A      4.395938   215A      4.441626  
     216A      4.441626   217A      4.768711   218A      4.794395  
     219A      4.794395   220A      4.902273   221A      4.995160  
     222A      4.995161   223A      5.105021   224A      5.201840  
     225A      5.201843   226A      5.394066   227A      5.394067  
     228A      5.425198   229A      5.425198   230A      5.452165  
     231A      5.453242   232A      5.482442   233A      5.509520  
     234A      5.509520   235A      5.695578   236A      5.857873  
     237A      5.857873   238A      5.968878   239A      6.246996  
     240A      6.246996   241A      6.253350   242A      6.253692  
     243A      6.327597   244A      6.327597   245A      6.515133  
     246A      6.846296   247A      6.846297   248A      6.868688  
     249A      6.918815   250A      6.931361   251A      6.966322  
     252A      6.966323   253A      7.190221   254A      7.373016  
     255A      7.379624   256A      7.379624   257A      7.413509  
     258A      7.413511   259A      7.446622   260A      7.446624  
     261A      7.499134   262A      7.499135   263A      7.612345  
     264A      7.648652   265A      7.675880   266A      7.716813  
     267A      7.716819   268A      7.762328   269A      7.762329  
     270A      7.861701   271A      7.861702   272A      7.994376  
     273A      7.994377   274A      8.014062   275A      8.080116  
     276A      8.080120   277A      8.274243   278A      8.315224  
     279A      8.385381   280A      8.385384   281A      8.486077  
     282A      8.491321   283A      8.491321   284A      8.601736  
     285A      8.601740   286A      8.603788   287A      8.734668  
     288A      8.734675   289A      8.871950   290A      8.871951  
     291A      8.936818   292A      8.963019   293A      9.021053  
     294A      9.025785   295A      9.033831   296A      9.035523  
     297A      9.035528   298A      9.256767   299A      9.256768  
     300A      9.343394   301A      9.343400   302A      9.424729  
     303A      9.449019   304A      9.486453   305A      9.486456  
     306A      9.523054   307A      9.523061   308A      9.666692  
     309A      9.666692   310A      9.687047   311A      9.748305  
     312A      9.855060   313A      9.935293   314A      9.935299  
     315A     10.083997   316A     10.083998   317A     10.135720  
     318A     10.135723   319A     10.168841   320A     10.304379  
     321A     10.304388   322A     10.381057   323A     10.566472  
     324A     10.566476   325A     10.789559   326A     10.879488  
     327A     10.885276   328A     11.019282   329A     11.019285  
     330A     11.794655   331A     12.209907   332A     12.209914  
     333A     12.276016   334A     12.351258   335A     12.351272  
     336A     13.070560   337A     13.142808   338A     13.142817  
     339A     13.326059   340A     14.884301   341A     15.103488  
     342A     15.103499   343A     31.038502   344A     31.038502  
     345A     31.372450   346A     36.690386   347A     42.539707  
     348A    160.351726  

    Final Occupation by Irrep:
              A 
    DOCC [     5 ]
    NA   [     5 ]
    NB   [     5 ]

  @DF-RHF Final Energy:   -56.22397716020584

   => Energetics <=

    Nuclear Repulsion Energy =             11.9475428385057612
    One-Electron Energy =                 -99.6106672623847658
    Two-Electron Energy =                  31.4391472636731564
    Total Energy =                        -56.2239771602058411

Computation Completed


Properties will be evaluated at   0.000000,   0.000000,   0.000000 [a0]

Properties computed using the SCF density matrix


 Multipole Moments:

 ------------------------------------------------------------------------------------
     Multipole            Electronic (a.u.)      Nuclear  (a.u.)        Total (a.u.)
 ------------------------------------------------------------------------------------

 L = 1.  Multiply by 2.5417464519 to convert [e a0] to [Debye]
 Dipole X            :         -0.0000127            0.0000153            0.0000026
 Dipole Y            :         50.9177137          -51.5240477           -0.6063340
 Dipole Z            :         -0.0000000            0.0000000           -0.0000000
 Magnitude           :                                                    0.6063340

 ------------------------------------------------------------------------------------

*** tstop() called on cmpsrv002 at Thu Sep 26 15:26:25 2024
Module time:
	user time   =      19.70 seconds =       0.33 minutes
	system time =       1.91 seconds =       0.03 minutes
	total time  =         11 seconds =       0.18 minutes
Total time:
	user time   =      75.69 seconds =       1.26 minutes
	system time =       9.46 seconds =       0.16 minutes
	total time  =         52 seconds =       0.87 minutes

*** tstart() called on cmpsrv002
*** at Thu Sep 26 15:26:25 2024


  //>>>>>>>>>>>>>>>>>>>>>>>>>>>>>>>>>>>//
  //               DFMP2               //
  //<<<<<<<<<<<<<<<<<<<<<<<<<<<<<<<<<<<//

   => Loading Basis Set <=

    Name: (THIS_BASIS AUX)
    Role: RIFIT
    Keyword: DF_BASIS_MP2
    atoms 1, 4-6 entry H          line    30 file /home/vance/anaconda3/envs/p4env/share/psi4/basis/aug-cc-pvqz-ri.gbs 
    atoms 2      entry CL         line   914 file /home/vance/anaconda3/envs/p4env/share/psi4/basis/aug-cc-pvqz-ri.gbs 
    atoms 3      entry N          line   258 file /home/vance/anaconda3/envs/p4env/share/psi4/basis/aug-cc-pvqz-ri.gbs 

	 --------------------------------------------------------
	                          DF-MP2                         
	      2nd-Order Density-Fitted Moller-Plesset Theory     
	              RMP2 Wavefunction,   4 Threads             
	                                                         
	        Rob Parrish, Justin Turney, Andy Simmonett,      
	           Ed Hohenstein, and C. David Sherrill          
	 --------------------------------------------------------

   => Auxiliary Basis Set <=

  Basis Set: (THIS_BASIS AUX)
    Blend: AUG-CC-PVQZ-RI
    Number of shells: 160
    Number of basis functions: 682
    Number of Cartesian functions: 925
    Spherical Harmonics?: true
    Max angular momentum: 5

	 --------------------------------------------------------
	                 NBF =   348, NAUX =   682
	 --------------------------------------------------------
	   CLASS    FOCC     OCC    AOCC    AVIR     VIR    FVIR
	   PAIRS       0       5       5     343     343       0
	 --------------------------------------------------------

	 Will attempt to load fitting metric from file 97.

	-----------------------------------------------------------
	 ==================> DF-MP2 Energies <==================== 
	-----------------------------------------------------------
	 Reference Energy          =     -56.2239771602058411 [Eh]
	 Singles Energy            =      -0.0000000000000000 [Eh]
	 Same-Spin Energy          =      -0.0594002709055824 [Eh]
	 Opposite-Spin Energy      =      -0.2247895269733174 [Eh]
	 Correlation Energy        =      -0.2841897978788999 [Eh]
	 Total Energy              =     -56.5081669580847432 [Eh]
	-----------------------------------------------------------
	 ================> DF-SCS-MP2 Energies <================== 
	-----------------------------------------------------------
	 SCS Same-Spin Scale       =       0.3333333333333333 [-]
	 SCS Opposite-Spin Scale   =       1.2000000000000000 [-]
	 SCS Same-Spin Energy      =      -0.0198000903018608 [Eh]
	 SCS Opposite-Spin Energy  =      -0.2697474323679809 [Eh]
	 SCS Correlation Energy    =      -0.2895475226698417 [Eh]
	 SCS Total Energy          =     -56.5135246828756834 [Eh]
	-----------------------------------------------------------


*** tstop() called on cmpsrv002 at Thu Sep 26 15:26:29 2024
Module time:
	user time   =       4.43 seconds =       0.07 minutes
	system time =       0.85 seconds =       0.01 minutes
	total time  =          4 seconds =       0.07 minutes
Total time:
	user time   =      80.12 seconds =       1.34 minutes
	system time =      10.31 seconds =       0.17 minutes
	total time  =         56 seconds =       0.93 minutes
  Constructing Basis Sets for SAPT...

   => Loading Basis Set <=

    Name: (THIS_BASIS AUX)
    Role: RIFIT
    Keyword: DF_BASIS_SAPT
    atoms 1, 4-6 entry H          line    30 file /home/vance/anaconda3/envs/p4env/share/psi4/basis/aug-cc-pvqz-ri.gbs 
    atoms 2      entry CL         line   914 file /home/vance/anaconda3/envs/p4env/share/psi4/basis/aug-cc-pvqz-ri.gbs 
    atoms 3      entry N          line   258 file /home/vance/anaconda3/envs/p4env/share/psi4/basis/aug-cc-pvqz-ri.gbs 

   => Loading Basis Set <=

    Name: (THIS_BASIS AUX)
    Role: JKFIT
    Keyword: DF_BASIS_ELST
    atoms 1, 4-6 entry H          line    70 file /home/vance/anaconda3/envs/p4env/share/psi4/basis/aug-cc-pvqz-jkfit.gbs 
    atoms 2      entry CL         line   904 file /home/vance/anaconda3/envs/p4env/share/psi4/basis/aug-cc-pvqz-jkfit.gbs 
    atoms 3      entry N          line   248 file /home/vance/anaconda3/envs/p4env/share/psi4/basis/aug-cc-pvqz-jkfit.gbs 


  //>>>>>>>>>>>>>>>>>>>>>>>>>>>>>>>>>>>//
  //             SAPT2+DMP2            //
  //<<<<<<<<<<<<<<<<<<<<<<<<<<<<<<<<<<<//


*** tstart() called on cmpsrv002
*** at Thu Sep 26 15:26:29 2024

        SAPT2+  
    Ed Hohenstein
     6 June 2009

      Orbital Information
  --------------------------
    NSO        =       348
    NMO        =       348
    NRI        =       682
    NOCC A     =         9
    NOCC B     =         5
    FOCC A     =         0
    FOCC B     =         0
    NVIR A     =       339
    NVIR B     =       343

    Estimated memory usage: 870.6 MB

    Natural Orbital Cutoff:   1.000E-06
    Disp(T3) Truncation:            Yes
    CCD (vv|vv) Truncation:         Yes
    MBPT T2 Truncation:             Yes

    Monomer A: 228 virtual orbitals dropped
    Monomer B: 181 virtual orbitals dropped

    Elst10,r            =    -0.008142250002 [Eh]
    Exch10 (S^2)        =     0.002964896888 [Eh]
    Exch10              =     0.002973874612 [Eh]
    Ind20,r (A<-B)      =    -0.000549801920 [Eh]
    Ind20,r (B<-A)      =    -0.001310717741 [Eh]
    Ind20,r             =    -0.001860519661 [Eh]
    Exch-Ind20,r (A<-B) =     0.000074072214 [Eh]
    Exch-Ind20,r (B<-A) =     0.000635233522 [Eh]
    Exch-Ind20,r        =     0.000709305736 [Eh]
    Disp20              =    -0.002174506667 [Eh]
    Disp20 (NO)         =    -0.001835651888 [Eh]
    Exch-Disp20         =     0.000279241258 [Eh]
    Elst12,r            =     0.000194352887 [Eh]
    Exch11              =     0.000150835872 [Eh]
    Exch12              =     0.000116488824 [Eh]
    Ind22               =    -0.000112451034 [Eh]
    Disp21              =     0.000097754758 [Eh]
    Disp22 (SDQ)        =     0.000114137688 [Eh]

    (i =   1 of   5)         18 seconds
    (i =   2 of   5)         33 seconds
    (i =   3 of   5)         49 seconds
    (i =   4 of   5)         67 seconds
    (i =   5 of   5)         84 seconds

    Disp220 (T)         =    -0.000158274455 [Eh]

    (i =   1 of   9)         15 seconds
    (i =   2 of   9)         30 seconds
    (i =   3 of   9)         47 seconds
    (i =   4 of   9)         60 seconds
    (i =   5 of   9)         73 seconds
    (i =   6 of   9)         86 seconds
    (i =   7 of   9)        100 seconds
    (i =   8 of   9)        114 seconds
    (i =   9 of   9)        127 seconds

    Disp202 (T)         =    -0.000163140021 [Eh]

    Disp22 (T)          =    -0.000321414476 [Eh]

    Est. Disp220 (T)    =    -0.000187491353 [Eh]
    Est. Disp202 (T)    =    -0.000193255086 [Eh]

    Est. Disp22 (T)     =    -0.000380746439 [Eh]

    SAPT Results 
  --------------------------------------------------------------------------------------------------------
    Electrostatics                 -7.94789712 [mEh]      -4.98738074 [kcal/mol]     -20.86720100 [kJ/mol]
      Elst10,r                     -8.14225000 [mEh]      -5.10933901 [kcal/mol]     -21.37747444 [kJ/mol]
      Elst12,r                      0.19435289 [mEh]       0.12195828 [kcal/mol]       0.51027343 [kJ/mol]

    Exchange                        3.24119931 [mEh]       2.03388327 [kcal/mol]       8.50976761 [kJ/mol]
      Exch10                        2.97387461 [mEh]       1.86613449 [kcal/mol]       7.80790672 [kJ/mol]
      Exch10(S^2)                   2.96489689 [mEh]       1.86050089 [kcal/mol]       7.78433571 [kJ/mol]
      Exch11(S^2)                   0.15083587 [mEh]       0.09465094 [kcal/mol]       0.39601953 [kJ/mol]
      Exch12(S^2)                   0.11648882 [mEh]       0.07309784 [kcal/mol]       0.30584137 [kJ/mol]

    Induction                      -2.07317511 [mEh]      -1.30093702 [kcal/mol]      -5.44312051 [kJ/mol]
      Ind20,r                      -1.86051966 [mEh]      -1.16749371 [kcal/mol]      -4.88479370 [kJ/mol]
      Ind22                        -0.11245103 [mEh]      -0.07056409 [kcal/mol]      -0.29524015 [kJ/mol]
      Exch-Ind20,r                  0.70930574 [mEh]       0.44509607 [kcal/mol]       1.86228195 [kJ/mol]
      Exch-Ind22                    0.04287091 [mEh]       0.02690190 [kcal/mol]       0.11255755 [kJ/mol]
      delta HF,r (2)               -0.76517202 [mEh]      -0.48015269 [kcal/mol]      -2.00895886 [kJ/mol]
      delta MP2,r (2)              -0.08720904 [mEh]      -0.05472450 [kcal/mol]      -0.22896731 [kJ/mol]

    Dispersion                     -2.06411940 [mEh]      -1.29525448 [kcal/mol]      -5.41934474 [kJ/mol]
      Disp20                       -2.17450667 [mEh]      -1.36452353 [kcal/mol]      -5.70916647 [kJ/mol]
      Disp21                        0.09775476 [mEh]       0.06134204 [kcal/mol]       0.25665508 [kJ/mol]
      Disp22 (SDQ)                  0.11413769 [mEh]       0.07162248 [kcal/mol]       0.29966846 [kJ/mol]
      Disp22 (T)                   -0.32141448 [mEh]      -0.20169063 [kcal/mol]      -0.84387359 [kJ/mol]
      Est. Disp22 (T)              -0.38074644 [mEh]      -0.23892200 [kcal/mol]      -0.99964964 [kJ/mol]
      Exch-Disp20                   0.27924126 [mEh]       0.17522654 [kcal/mol]       0.73314782 [kJ/mol]

  Total HF                         -7.08476133 [mEh]      -4.44575486 [kcal/mol]     -18.60103832 [kJ/mol]
  Total SAPT0                      -8.98002674 [mEh]      -5.63505186 [kcal/mol]     -23.57705696 [kJ/mol]
  Total SAPT2                      -8.58792929 [mEh]      -5.38900699 [kcal/mol]     -22.54760524 [kJ/mol]
  Total SAPT2+                     -8.75678328 [mEh]      -5.49496447 [kcal/mol]     -22.99093134 [kJ/mol]
  Total SAPT2+dMP2                 -8.84399232 [mEh]      -5.54968897 [kcal/mol]     -23.21989864 [kJ/mol]

  Special recipe for scaled SAPT0 (see Manual):
    Electrostatics sSAPT0          -8.14225000 [mEh]      -5.10933901 [kcal/mol]     -21.37747444 [kJ/mol]
    Exchange sSAPT0                 2.97387461 [mEh]       1.86613449 [kcal/mol]       7.80790672 [kJ/mol]
    Induction sSAPT0               -1.90992307 [mEh]      -1.19849482 [kcal/mol]      -5.01450233 [kJ/mol]
    Dispersion sSAPT0              -1.89272109 [mEh]      -1.18770041 [kcal/mol]      -4.96933853 [kJ/mol]
  Total sSAPT0                     -8.97101955 [mEh]      -5.62939976 [kcal/mol]     -23.55340858 [kJ/mol]
  --------------------------------------------------------------------------------------------------------

*** tstop() called on cmpsrv002 at Thu Sep 26 15:43:32 2024
Module time:
	user time   =    1167.61 seconds =      19.46 minutes
	system time =      93.94 seconds =       1.57 minutes
	total time  =       1023 seconds =      17.05 minutes
Total time:
	user time   =    1248.00 seconds =      20.80 minutes
	system time =     104.29 seconds =       1.74 minutes
	total time  =       1079 seconds =      17.98 minutes

    Psi4 stopped on: Thursday, 26 September 2024 03:43PM
    Psi4 wall time for execution: 0:17:59.07

*** Psi4 exiting successfully. Buy a developer a beer!
