
    -----------------------------------------------------------------------
          Psi4: An Open-Source Ab Initio Electronic Structure Package
                               Psi4 1.9.1 release

                         Git: Rev {} zzzzzzz 


    D. G. A. Smith, L. A. Burns, A. C. Simmonett, R. M. Parrish,
    M. C. Schieber, R. Galvelis, P. Kraus, H. Kruse, R. Di Remigio,
    A. Alenaizan, A. M. James, S. Lehtola, J. P. Misiewicz, M. Scheurer,
    R. A. Shaw, J. B. Schriber, Y. Xie, Z. L. Glick, D. A. Sirianni,
    J. S. O'Brien, J. M. Waldrop, A. Kumar, E. G. Hohenstein,
    B. P. Pritchard, B. R. Brooks, H. F. Schaefer III, A. Yu. Sokolov,
    K. Patkowski, A. E. DePrince III, U. Bozkaya, R. A. King,
    F. A. Evangelista, J. M. Turney, T. D. Crawford, C. D. Sherrill,
    J. Chem. Phys. 152(18) 184108 (2020). https://doi.org/10.1063/5.0006002

                            Additional Code Authors
    E. T. Seidl, C. L. Janssen, E. F. Valeev, M. L. Leininger,
    J. F. Gonthier, R. M. Richard, H. R. McAlexander, M. Saitow, X. Wang,
    P. Verma, M. H. Lechner, A. Jiang, S. Behnle, A. G. Heide,
    M. F. Herbst, and D. L. Poole

             Previous Authors, Complete List of Code Contributors,
                       and Citations for Specific Modules
    https://github.com/psi4/psi4/blob/master/codemeta.json
    https://github.com/psi4/psi4/graphs/contributors
    http://psicode.org/psi4manual/master/introduction.html#citing-psifour

    -----------------------------------------------------------------------


    Psi4 started on: Thursday, 26 September 2024 03:25PM

    Process ID: 636584
    Host:       cmpsrv002
    PSIDATADIR: /home/vance/anaconda3/envs/p4env/share/psi4
    Memory:     500.0 MiB
    Threads:    8
    
  ==> Input File <==

--------------------------------------------------------------------------
#charge=0 charge_a=0 charge_b=0 selection_a=1-2 selection_b=3-13 scaling=1.0 benchmark_Eint=-11.973 benchmark_unit=kcal/mol group=XH-N
set_num_threads(4)
memory 8 GB
basis this_basis {
    assign    aug-cc-pVQZ
}

molecule {
     0 1
    --
     0 1
     H        0.00000        0.00000        1.62588
    Cl        0.00000        0.00000        2.99334
    --
     0 1
     H        0.00000       -2.14771       -2.54881
     H        0.00000       -2.05142       -0.05528
     C        0.00000        0.00000       -2.74261
     C        0.00000       -1.19640       -2.03849
     C        0.00000       -1.14931       -0.65256
     N        0.00000        0.00000        0.02044
     C        0.00000        1.14931       -0.65256
     C        0.00000        1.19640       -2.03849
     H        0.00000        2.05142       -0.05528
     H        0.00000        2.14771       -2.54881
     H        0.00000        0.00000       -3.82319
}

set {
    scf_type                DF
    freeze_core             false
    do_ind_exch_sinf        true
    do_disp_exch_sinf       true
}

nrg = energy('sapt2+dmp2')
--------------------------------------------------------------------------
  Threads set to 4 by Python driver.

  Memory set to   7.451 GiB by Python driver.

Scratch directory: /scratch2/vance/psi4/
  SAPT does not make use of molecular symmetry, further calculations in C1 point group.
   => Loading Basis Set <=

    Name: THIS_BASIS
    Role: ORBITAL
    Keyword: BASIS
    atoms 1, 3-4, 11-13 entry H          line    40 file /home/vance/anaconda3/envs/p4env/share/psi4/basis/aug-cc-pvqz.gbs 
    atoms 2             entry CL         line  1222 file /home/vance/anaconda3/envs/p4env/share/psi4/basis/aug-cc-pvqz.gbs 
    atoms 5-7, 9-10     entry C          line   303 file /home/vance/anaconda3/envs/p4env/share/psi4/basis/aug-cc-pvqz.gbs 
    atoms 8             entry N          line   363 file /home/vance/anaconda3/envs/p4env/share/psi4/basis/aug-cc-pvqz.gbs 

   => Loading Basis Set <=

    Name: THIS_BASIS
    Role: ORBITAL
    Keyword: BASIS
    atoms 1, 3-4, 11-13 entry H          line    40 file /home/vance/anaconda3/envs/p4env/share/psi4/basis/aug-cc-pvqz.gbs 
    atoms 2             entry CL         line  1222 file /home/vance/anaconda3/envs/p4env/share/psi4/basis/aug-cc-pvqz.gbs 
    atoms 5-7, 9-10     entry C          line   303 file /home/vance/anaconda3/envs/p4env/share/psi4/basis/aug-cc-pvqz.gbs 
    atoms 8             entry N          line   363 file /home/vance/anaconda3/envs/p4env/share/psi4/basis/aug-cc-pvqz.gbs 


  //>>>>>>>>>>>>>>>>>>>>>>>>>>>>>>>>>>>//
  //              Dimer HF             //
  //<<<<<<<<<<<<<<<<<<<<<<<<<<<<<<<<<<<//

   => Libint2 <=

    Primary   basis highest AM E, G, H:  6, 6, 3
    Auxiliary basis highest AM E, G, H:  7, 7, 4
    Onebody   basis highest AM E, G, H:  -, -, -
    Solid Harmonics ordering:            Gaussian

*** tstart() called on cmpsrv002
*** at Thu Sep 26 15:25:33 2024

   => Loading Basis Set <=

    Name: THIS_BASIS
    Role: ORBITAL
    Keyword: BASIS
    atoms 1, 3-4, 11-13 entry H          line    40 file /home/vance/anaconda3/envs/p4env/share/psi4/basis/aug-cc-pvqz.gbs 
    atoms 2             entry CL         line  1222 file /home/vance/anaconda3/envs/p4env/share/psi4/basis/aug-cc-pvqz.gbs 
    atoms 5-7, 9-10     entry C          line   303 file /home/vance/anaconda3/envs/p4env/share/psi4/basis/aug-cc-pvqz.gbs 
    atoms 8             entry N          line   363 file /home/vance/anaconda3/envs/p4env/share/psi4/basis/aug-cc-pvqz.gbs 


         ---------------------------------------------------------
                                   SCF
               by Justin Turney, Rob Parrish, Andy Simmonett
                          and Daniel G. A. Smith
                              RHF Reference
                        4 Threads,   7629 MiB Core
         ---------------------------------------------------------

  ==> Geometry <==

    Molecular point group: c1
    Full point group: C2v

    Geometry (in Angstrom), charge = 0, multiplicity = 1:

       Center              X                  Y                   Z               Mass       
    ------------   -----------------  -----------------  -----------------  -----------------
         H            0.000000000000     0.000000000000     1.625880607536     1.007825032230
         CL           0.000000000000     0.000000000000     2.993340607536    34.968852682000
         H            0.000000000000    -2.147710000000    -2.548809392464     1.007825032230
         H            0.000000000000    -2.051420000000    -0.055279392464     1.007825032230
         C            0.000000000000     0.000000000000    -2.742609392464    12.000000000000
         C            0.000000000000    -1.196400000000    -2.038489392464    12.000000000000
         C            0.000000000000    -1.149310000000    -0.652559392464    12.000000000000
         N            0.000000000000     0.000000000000     0.020440607536    14.003074004430
         C           -0.000000000000     1.149310000000    -0.652559392464    12.000000000000
         C           -0.000000000000     1.196400000000    -2.038489392464    12.000000000000
         H           -0.000000000000     2.051420000000    -0.055279392464     1.007825032230
         H           -0.000000000000     2.147710000000    -2.548809392464     1.007825032230
         H            0.000000000000     0.000000000000    -3.823189392464     1.007825032230

  Running in c1 symmetry.

  Rotational constants: A =      0.20108  B =      0.03099  C =      0.02685 [cm^-1]
  Rotational constants: A =   6028.26605  B =    928.93845  C =    804.90492 [MHz]
  Nuclear repulsion =  310.399583584815332

  Charge       = 0
  Multiplicity = 1
  Electrons    = 60
  Nalpha       = 30
  Nbeta        = 30

  ==> Algorithm <==

  SCF Algorithm Type is DF.
  DIIS enabled.
  MOM disabled.
  Fractional occupation disabled.
  Guess Type is SAD.
  Energy threshold   = 1.00e-08
  Density threshold  = 1.00e-08
  Integral threshold = 1.00e-12

  ==> Primary Basis <==

  Basis Set: THIS_BASIS
    Blend: AUG-CC-PVQZ
    Number of shells: 226
    Number of basis functions: 840
    Number of Cartesian functions: 1069
    Spherical Harmonics?: true
    Max angular momentum: 4

   => Loading Basis Set <=

    Name: (THIS_BASIS AUX)
    Role: JKFIT
    Keyword: DF_BASIS_SCF
    atoms 1, 3-4, 11-13 entry H          line    70 file /home/vance/anaconda3/envs/p4env/share/psi4/basis/aug-cc-pvqz-jkfit.gbs 
    atoms 2             entry CL         line   904 file /home/vance/anaconda3/envs/p4env/share/psi4/basis/aug-cc-pvqz-jkfit.gbs 
    atoms 5-7, 9-10     entry C          line   178 file /home/vance/anaconda3/envs/p4env/share/psi4/basis/aug-cc-pvqz-jkfit.gbs 
    atoms 8             entry N          line   248 file /home/vance/anaconda3/envs/p4env/share/psi4/basis/aug-cc-pvqz-jkfit.gbs 

  ==> Integral Setup <==

  ==> DiskDFJK: Density-Fitted J/K Matrices <==

    J tasked:                  Yes
    K tasked:                  Yes
    wK tasked:                  No
    OpenMP threads:              4
    Integrals threads:           4
    Memory [MiB]:             5722
    Algorithm:                Core
    Integral Cache:           SAVE
    Schwarz Cutoff:          1E-12
    Fitting Condition:       1E-10

   => Auxiliary Basis Set <=

  Basis Set: (THIS_BASIS AUX)
    Blend: AUG-CC-PVQZ-JKFIT
    Number of shells: 358
    Number of basis functions: 1492
    Number of Cartesian functions: 2041
    Spherical Harmonics?: true
    Max angular momentum: 5

  Minimum eigenvalue in the overlap matrix is 5.4016599630E-07.
  Reciprocal condition number of the overlap matrix is 2.9316936344E-08.
    Using symmetric orthogonalization.

  ==> Pre-Iterations <==

  SCF Guess: Superposition of Atomic Densities via on-the-fly atomic UHF (no occupation information).

   -------------------------
    Irrep   Nso     Nmo    
   -------------------------
     A        840     840 
   -------------------------
    Total     840     840
   -------------------------

  ==> Iterations <==

                           Total Energy        Delta E     RMS |[F,P]|

   @DF-RHF iter SAD:  -706.31420662978269   -7.06314e+02   0.00000e+00 
   @DF-RHF iter   1:  -706.76068326893756   -4.46477e-01   6.02711e-04 ADIIS/DIIS
   @DF-RHF iter   2:  -706.88692241191961   -1.26239e-01   2.54832e-04 ADIIS/DIIS
   @DF-RHF iter   3:  -706.90836601481226   -2.14436e-02   5.42243e-05 DIIS
   @DF-RHF iter   4:  -706.90992736935777   -1.56135e-03   1.28626e-05 DIIS
   @DF-RHF iter   5:  -706.91000861477801   -8.12454e-05   4.25746e-06 DIIS
   @DF-RHF iter   6:  -706.91001943563811   -1.08209e-05   1.71667e-06 DIIS
   @DF-RHF iter   7:  -706.91002155172998   -2.11609e-06   6.58159e-07 DIIS
   @DF-RHF iter   8:  -706.91002187160950   -3.19880e-07   2.05464e-07 DIIS
   @DF-RHF iter   9:  -706.91002190567519   -3.40657e-08   6.12152e-08 DIIS
   @DF-RHF iter  10:  -706.91002190823269   -2.55750e-09   1.13224e-08 DIIS
   @DF-RHF iter  11:  -706.91002190834013   -1.07434e-10   2.90735e-09 DIIS
  Energy and wave function converged.


  ==> Post-Iterations <==

    Orbital Energies [Eh]
    ---------------------

    Doubly Occupied:                                                      

       1A   -104.777414     2A    -15.600565     3A    -11.302777  
       4A    -11.302757     5A    -11.283421     6A    -11.263890  
       7A    -11.263840     8A    -10.503967     9A     -7.970953  
      10A     -7.969800    11A     -7.969788    12A     -1.297234  
      13A     -1.118178    14A     -1.064798    15A     -1.044014  
      16A     -0.888432    17A     -0.886554    18A     -0.755365  
      19A     -0.692602    20A     -0.679528    21A     -0.631304  
      22A     -0.628126    23A     -0.576823    24A     -0.555875  
      25A     -0.549026    26A     -0.429140    27A     -0.421539  
      28A     -0.417566    29A     -0.410779    30A     -0.374635  

    Virtual:                                                              

      31A      0.015687    32A      0.023866    33A      0.030896  
      34A      0.043275    35A      0.047037    36A      0.053952  
      37A      0.064603    38A      0.071843    39A      0.077576  
      40A      0.078477    41A      0.085512    42A      0.088572  
      43A      0.090282    44A      0.091922    45A      0.092549  
      46A      0.104749    47A      0.110624    48A      0.114488  
      49A      0.117499    50A      0.120226    51A      0.125520  
      52A      0.126588    53A      0.127967    54A      0.132175  
      55A      0.139740    56A      0.151966    57A      0.159138  
      58A      0.184186    59A      0.192069    60A      0.200953  
      61A      0.203910    62A      0.204282    63A      0.209947  
      64A      0.215215    65A      0.227970    66A      0.232700  
      67A      0.239243    68A      0.243220    69A      0.244185  
      70A      0.245221    71A      0.248098    72A      0.257535  
      73A      0.264157    74A      0.270175    75A      0.270319  
      76A      0.275512    77A      0.276671    78A      0.279496  
      79A      0.286001    80A      0.289791    81A      0.294161  
      82A      0.302528    83A      0.303241    84A      0.307750  
      85A      0.319527    86A      0.321335    87A      0.335729  
      88A      0.338467    89A      0.347745    90A      0.353097  
      91A      0.357029    92A      0.361066    93A      0.363155  
      94A      0.368987    95A      0.376884    96A      0.379160  
      97A      0.388174    98A      0.389007    99A      0.405749  
     100A      0.410984   101A      0.413457   102A      0.419880  
     103A      0.420170   104A      0.421093   105A      0.429604  
     106A      0.430107   107A      0.433187   108A      0.445147  
     109A      0.445559   110A      0.449283   111A      0.450573  
     112A      0.455676   113A      0.459377   114A      0.468642  
     115A      0.477279   116A      0.480018   117A      0.483152  
     118A      0.494799   119A      0.496226   120A      0.504690  
     121A      0.506621   122A      0.508189   123A      0.514022  
     124A      0.526345   125A      0.553780   126A      0.554543  
     127A      0.560342   128A      0.562814   129A      0.573384  
     130A      0.574209   131A      0.580152   132A      0.587470  
     133A      0.587957   134A      0.599982   135A      0.610128  
     136A      0.619602   137A      0.625754   138A      0.631364  
     139A      0.643263   140A      0.653436   141A      0.657933  
     142A      0.661339   143A      0.671376   144A      0.674170  
     145A      0.682081   146A      0.686369   147A      0.695843  
     148A      0.702129   149A      0.707036   150A      0.722152  
     151A      0.727830   152A      0.728138   153A      0.736791  
     154A      0.736849   155A      0.742372   156A      0.749702  
     157A      0.762940   158A      0.766813   159A      0.769307  
     160A      0.769358   161A      0.773895   162A      0.780671  
     163A      0.784283   164A      0.791962   165A      0.801420  
     166A      0.804477   167A      0.806221   168A      0.813990  
     169A      0.817086   170A      0.823352   171A      0.825374  
     172A      0.831183   173A      0.845733   174A      0.861512  
     175A      0.870008   176A      0.875976   177A      0.880925  
     178A      0.887254   179A      0.888935   180A      0.890660  
     181A      0.900216   182A      0.909877   183A      0.917066  
     184A      0.921899   185A      0.932432   186A      0.934623  
     187A      0.937309   188A      0.946122   189A      0.950491  
     190A      0.953635   191A      0.959939   192A      0.965079  
     193A      0.976986   194A      0.985922   195A      1.001864  
     196A      1.008359   197A      1.010268   198A      1.012082  
     199A      1.022897   200A      1.031833   201A      1.048072  
     202A      1.050617   203A      1.058441   204A      1.058480  
     205A      1.070917   206A      1.082730   207A      1.085319  
     208A      1.089388   209A      1.105375   210A      1.121195  
     211A      1.135951   212A      1.137094   213A      1.145320  
     214A      1.146770   215A      1.151986   216A      1.160927  
     217A      1.165588   218A      1.166960   219A      1.182594  
     220A      1.192104   221A      1.195543   222A      1.201617  
     223A      1.204680   224A      1.219038   225A      1.239825  
     226A      1.247151   227A      1.254996   228A      1.262577  
     229A      1.275792   230A      1.298592   231A      1.298751  
     232A      1.298768   233A      1.314398   234A      1.317724  
     235A      1.336132   236A      1.342061   237A      1.346623  
     238A      1.363966   239A      1.366678   240A      1.369183  
     241A      1.372403   242A      1.377773   243A      1.384295  
     244A      1.391700   245A      1.400344   246A      1.413742  
     247A      1.421724   248A      1.426700   249A      1.427169  
     250A      1.455154   251A      1.477745   252A      1.488198  
     253A      1.499859   254A      1.515465   255A      1.519486  
     256A      1.525359   257A      1.528788   258A      1.537535  
     259A      1.541279   260A      1.554037   261A      1.555249  
     262A      1.568829   263A      1.572787   264A      1.584411  
     265A      1.585052   266A      1.608788   267A      1.610275  
     268A      1.622884   269A      1.625341   270A      1.625675  
     271A      1.644722   272A      1.655190   273A      1.692806  
     274A      1.696181   275A      1.711602   276A      1.716885  
     277A      1.724879   278A      1.725628   279A      1.747688  
     280A      1.753850   281A      1.775666   282A      1.776122  
     283A      1.778245   284A      1.795461   285A      1.799783  
     286A      1.827293   287A      1.835890   288A      1.836547  
     289A      1.836914   290A      1.847414   291A      1.848294  
     292A      1.864774   293A      1.879051   294A      1.880610  
     295A      1.884824   296A      1.893813   297A      1.898259  
     298A      1.907172   299A      1.910554   300A      1.915664  
     301A      1.935918   302A      1.938581   303A      1.939687  
     304A      1.951946   305A      1.952970   306A      1.957337  
     307A      1.974246   308A      1.984124   309A      1.990920  
     310A      1.994421   311A      1.996701   312A      2.006821  
     313A      2.018685   314A      2.021753   315A      2.035995  
     316A      2.036526   317A      2.038542   318A      2.049536  
     319A      2.057611   320A      2.067165   321A      2.073759  
     322A      2.077978   323A      2.083286   324A      2.101557  
     325A      2.110118   326A      2.112571   327A      2.126305  
     328A      2.132309   329A      2.139794   330A      2.145864  
     331A      2.160457   332A      2.173979   333A      2.176706  
     334A      2.192082   335A      2.192617   336A      2.202646  
     337A      2.208944   338A      2.223444   339A      2.234589  
     340A      2.238411   341A      2.244165   342A      2.248294  
     343A      2.261145   344A      2.262530   345A      2.273095  
     346A      2.273668   347A      2.278712   348A      2.287474  
     349A      2.297977   350A      2.310336   351A      2.328613  
     352A      2.329838   353A      2.337573   354A      2.345899  
     355A      2.351607   356A      2.365757   357A      2.368234  
     358A      2.379779   359A      2.384017   360A      2.390252  
     361A      2.391180   362A      2.401202   363A      2.407397  
     364A      2.418849   365A      2.422286   366A      2.424623  
     367A      2.432381   368A      2.460158   369A      2.465042  
     370A      2.473530   371A      2.482320   372A      2.482901  
     373A      2.488714   374A      2.489625   375A      2.506068  
     376A      2.510641   377A      2.522162   378A      2.528394  
     379A      2.528773   380A      2.535124   381A      2.546503  
     382A      2.546993   383A      2.553673   384A      2.567758  
     385A      2.586716   386A      2.590092   387A      2.603598  
     388A      2.607164   389A      2.615718   390A      2.636459  
     391A      2.650014   392A      2.657903   393A      2.667162  
     394A      2.671606   395A      2.692528   396A      2.698679  
     397A      2.708662   398A      2.720884   399A      2.734711  
     400A      2.755630   401A      2.766345   402A      2.769309  
     403A      2.790640   404A      2.802904   405A      2.813080  
     406A      2.814995   407A      2.834103   408A      2.840355  
     409A      2.846411   410A      2.858346   411A      2.893238  
     412A      2.898791   413A      2.911508   414A      2.921039  
     415A      2.923539   416A      2.952698   417A      2.964583  
     418A      2.975359   419A      2.998991   420A      3.010493  
     421A      3.016358   422A      3.018290   423A      3.022134  
     424A      3.040258   425A      3.054621   426A      3.063451  
     427A      3.075383   428A      3.104138   429A      3.104670  
     430A      3.110229   431A      3.137558   432A      3.140835  
     433A      3.148801   434A      3.161945   435A      3.181902  
     436A      3.191876   437A      3.220141   438A      3.242439  
     439A      3.247059   440A      3.269763   441A      3.273820  
     442A      3.280023   443A      3.291430   444A      3.293625  
     445A      3.317312   446A      3.322337   447A      3.348908  
     448A      3.350756   449A      3.359681   450A      3.372949  
     451A      3.386237   452A      3.404789   453A      3.445837  
     454A      3.445875   455A      3.453216   456A      3.457770  
     457A      3.457956   458A      3.466664   459A      3.542814  
     460A      3.557085   461A      3.559823   462A      3.568335  
     463A      3.592378   464A      3.620904   465A      3.630731  
     466A      3.636735   467A      3.648705   468A      3.667821  
     469A      3.679096   470A      3.701375   471A      3.710882  
     472A      3.734075   473A      3.749202   474A      3.778243  
     475A      3.783638   476A      3.794264   477A      3.794417  
     478A      3.806083   479A      3.807556   480A      3.828177  
     481A      3.871563   482A      3.891276   483A      3.898045  
     484A      3.904744   485A      3.925627   486A      3.940919  
     487A      3.951589   488A      3.965411   489A      3.977745  
     490A      3.980340   491A      3.998235   492A      4.018747  
     493A      4.047438   494A      4.054515   495A      4.058351  
     496A      4.059285   497A      4.074030   498A      4.085814  
     499A      4.117609   500A      4.144490   501A      4.164090  
     502A      4.165643   503A      4.210893   504A      4.218882  
     505A      4.228799   506A      4.235983   507A      4.236341  
     508A      4.273395   509A      4.287552   510A      4.301921  
     511A      4.329221   512A      4.338118   513A      4.358288  
     514A      4.373671   515A      4.387355   516A      4.406700  
     517A      4.414421   518A      4.428401   519A      4.470252  
     520A      4.473594   521A      4.479779   522A      4.498853  
     523A      4.500932   524A      4.520736   525A      4.536552  
     526A      4.547271   527A      4.554735   528A      4.588634  
     529A      4.598695   530A      4.614974   531A      4.631292  
     532A      4.642751   533A      4.667828   534A      4.682013  
     535A      4.693019   536A      4.725356   537A      4.751483  
     538A      4.771608   539A      4.774684   540A      4.781395  
     541A      4.784747   542A      4.790680   543A      4.792154  
     544A      4.804864   545A      4.810792   546A      4.812930  
     547A      4.835904   548A      4.850039   549A      4.858752  
     550A      4.897443   551A      4.908661   552A      4.926035  
     553A      4.933825   554A      4.943333   555A      4.959762  
     556A      4.972552   557A      5.015928   558A      5.017194  
     559A      5.025864   560A      5.030601   561A      5.054373  
     562A      5.089590   563A      5.092981   564A      5.111133  
     565A      5.154682   566A      5.161588   567A      5.197305  
     568A      5.221784   569A      5.228534   570A      5.251842  
     571A      5.320053   572A      5.324862   573A      5.365035  
     574A      5.365959   575A      5.394506   576A      5.424956  
     577A      5.473550   578A      5.504444   579A      5.529999  
     580A      5.608001   581A      5.629716   582A      5.663675  
     583A      5.729134   584A      5.741228   585A      5.747608  
     586A      5.833347   587A      5.852588   588A      5.864933  
     589A      5.888359   590A      5.915618   591A      5.945113  
     592A      5.997570   593A      6.001850   594A      6.029274  
     595A      6.058254   596A      6.089372   597A      6.100433  
     598A      6.142595   599A      6.151174   600A      6.161709  
     601A      6.185452   602A      6.201358   603A      6.205524  
     604A      6.232628   605A      6.312336   606A      6.321764  
     607A      6.349666   608A      6.368809   609A      6.370365  
     610A      6.373162   611A      6.427319   612A      6.479907  
     613A      6.485908   614A      6.506232   615A      6.552966  
     616A      6.554080   617A      6.557276   618A      6.590679  
     619A      6.609275   620A      6.613002   621A      6.625302  
     622A      6.640943   623A      6.665807   624A      6.695404  
     625A      6.702028   626A      6.710997   627A      6.712772  
     628A      6.722244   629A      6.728363   630A      6.743039  
     631A      6.773002   632A      6.786950   633A      6.787415  
     634A      6.811933   635A      6.841473   636A      6.852563  
     637A      6.854573   638A      6.891937   639A      6.913764  
     640A      6.934639   641A      6.940404   642A      6.957790  
     643A      6.993858   644A      6.999027   645A      6.999578  
     646A      7.006811   647A      7.035798   648A      7.042293  
     649A      7.061689   650A      7.062906   651A      7.080931  
     652A      7.123725   653A      7.136846   654A      7.143288  
     655A      7.163326   656A      7.172002   657A      7.180978  
     658A      7.214323   659A      7.218974   660A      7.246167  
     661A      7.255536   662A      7.260201   663A      7.313505  
     664A      7.314154   665A      7.320818   666A      7.329000  
     667A      7.341837   668A      7.385897   669A      7.387584  
     670A      7.398329   671A      7.417258   672A      7.424803  
     673A      7.451594   674A      7.469468   675A      7.505307  
     676A      7.519503   677A      7.555083   678A      7.569948  
     679A      7.592051   680A      7.596653   681A      7.651758  
     682A      7.672138   683A      7.674078   684A      7.690329  
     685A      7.732709   686A      7.773229   687A      7.798774  
     688A      7.840061   689A      7.840577   690A      7.852192  
     691A      7.862862   692A      7.863861   693A      7.879402  
     694A      7.921876   695A      7.957912   696A      7.995577  
     697A      8.028095   698A      8.032592   699A      8.035640  
     700A      8.086428   701A      8.090900   702A      8.091319  
     703A      8.095942   704A      8.102199   705A      8.143332  
     706A      8.143500   707A      8.293819   708A      8.333010  
     709A      8.339828   710A      8.354831   711A      8.356798  
     712A      8.376575   713A      8.409138   714A      8.452066  
     715A      8.525483   716A      8.532723   717A      8.544872  
     718A      8.624438   719A      8.631685   720A      8.636686  
     721A      8.682515   722A      8.690977   723A      8.698756  
     724A      8.750103   725A      8.755276   726A      8.757125  
     727A      8.830469   728A      8.832796   729A      8.871076  
     730A      8.876952   731A      8.891994   732A      8.906327  
     733A      8.941668   734A      8.948782   735A      8.953180  
     736A      8.973474   737A      8.995700   738A      9.007742  
     739A      9.037998   740A      9.055376   741A      9.056043  
     742A      9.076523   743A      9.105064   744A      9.121814  
     745A      9.134497   746A      9.198978   747A      9.200410  
     748A      9.238468   749A      9.253372   750A      9.255537  
     751A      9.284519   752A      9.357034   753A      9.394493  
     754A      9.413945   755A      9.447197   756A      9.466376  
     757A      9.528198   758A      9.536017   759A      9.537830  
     760A      9.553699   761A      9.570624   762A      9.585283  
     763A      9.599874   764A      9.611034   765A      9.638859  
     766A      9.651713   767A      9.662296   768A      9.710284  
     769A      9.716861   770A      9.787577   771A      9.835996  
     772A      9.844406   773A      9.864022   774A      9.883153  
     775A      9.902458   776A      9.942555   777A      9.972967  
     778A      9.986879   779A     10.010068   780A     10.015305  
     781A     10.024195   782A     10.080397   783A     10.193557  
     784A     10.218325   785A     10.230168   786A     10.232302  
     787A     10.246954   788A     10.287821   789A     10.329512  
     790A     10.340777   791A     10.368575   792A     10.404218  
     793A     10.482759   794A     10.484597   795A     10.502892  
     796A     10.528499   797A     10.529335   798A     10.571766  
     799A     10.605922   800A     10.660764   801A     10.707653  
     802A     10.740367   803A     10.757099   804A     10.784503  
     805A     10.792226   806A     10.832629   807A     10.849034  
     808A     10.904425   809A     10.913807   810A     11.205818  
     811A     11.232844   812A     11.291232   813A     11.317278  
     814A     11.401399   815A     11.422599   816A     11.499017  
     817A     11.521291   818A     11.657880   819A     11.665803  
     820A     11.707196   821A     11.732219   822A     11.886694  
     823A     11.971786   824A     12.355115   825A     12.524848  
     826A     12.570487   827A     12.783818   828A     13.016782  
     829A     13.234568   830A     13.366782   831A     13.404782  
     832A     13.568779   833A     13.723135   834A     26.285171  
     835A     26.422530   836A     26.661014   837A     27.034752  
     838A     27.309203   839A     27.397890   840A     34.569958  

    Final Occupation by Irrep:
              A 
    DOCC [    30 ]
    NA   [    30 ]
    NB   [    30 ]

  @DF-RHF Final Energy:  -706.91002190834013

   => Energetics <=

    Nuclear Repulsion Energy =            310.3995835848153320
    One-Electron Energy =               -1585.3578245336479995
    Two-Electron Energy =                 568.0482190404924268
    Total Energy =                       -706.9100219083401271

Computation Completed


Properties will be evaluated at   0.000000,   0.000000,   0.000000 [a0]

Properties computed using the SCF density matrix


 Multipole Moments:

 ------------------------------------------------------------------------------------
     Multipole            Electronic (a.u.)      Nuclear  (a.u.)        Total (a.u.)
 ------------------------------------------------------------------------------------

 L = 1.  Multiply by 2.5417464519 to convert [e a0] to [Debye]
 Dipole X            :          0.0000000           -0.0000000            0.0000000
 Dipole Y            :          0.0000000           -0.0000000            0.0000000
 Dipole Z            :          7.1341147           -9.6826799           -2.5485652
 Magnitude           :                                                    2.5485652

 ------------------------------------------------------------------------------------

*** tstop() called on cmpsrv002 at Thu Sep 26 15:34:13 2024
Module time:
	user time   =     249.14 seconds =       4.15 minutes
	system time =      16.95 seconds =       0.28 minutes
	total time  =        520 seconds =       8.67 minutes
Total time:
	user time   =     249.14 seconds =       4.15 minutes
	system time =      16.95 seconds =       0.28 minutes
	total time  =        520 seconds =       8.67 minutes

*** tstart() called on cmpsrv002
*** at Thu Sep 26 15:34:13 2024


  //>>>>>>>>>>>>>>>>>>>>>>>>>>>>>>>>>>>//
  //               DFMP2               //
  //<<<<<<<<<<<<<<<<<<<<<<<<<<<<<<<<<<<//

   => Loading Basis Set <=

    Name: (THIS_BASIS AUX)
    Role: RIFIT
    Keyword: DF_BASIS_MP2
    atoms 1, 3-4, 11-13 entry H          line    30 file /home/vance/anaconda3/envs/p4env/share/psi4/basis/aug-cc-pvqz-ri.gbs 
    atoms 2             entry CL         line   914 file /home/vance/anaconda3/envs/p4env/share/psi4/basis/aug-cc-pvqz-ri.gbs 
    atoms 5-7, 9-10     entry C          line   184 file /home/vance/anaconda3/envs/p4env/share/psi4/basis/aug-cc-pvqz-ri.gbs 
    atoms 8             entry N          line   258 file /home/vance/anaconda3/envs/p4env/share/psi4/basis/aug-cc-pvqz-ri.gbs 

	 --------------------------------------------------------
	                          DF-MP2                         
	      2nd-Order Density-Fitted Moller-Plesset Theory     
	              RMP2 Wavefunction,   4 Threads             
	                                                         
	        Rob Parrish, Justin Turney, Andy Simmonett,      
	           Ed Hohenstein, and C. David Sherrill          
	 --------------------------------------------------------

   => Auxiliary Basis Set <=

  Basis Set: (THIS_BASIS AUX)
    Blend: AUG-CC-PVQZ-RI
    Number of shells: 380
    Number of basis functions: 1682
    Number of Cartesian functions: 2320
    Spherical Harmonics?: true
    Max angular momentum: 5

	 --------------------------------------------------------
	                 NBF =   840, NAUX =  1682
	 --------------------------------------------------------
	   CLASS    FOCC     OCC    AOCC    AVIR     VIR    FVIR
	   PAIRS       0      30      30     810     810       0
	 --------------------------------------------------------

	 Will save fitting metric to file 97.

	-----------------------------------------------------------
	 ==================> DF-MP2 Energies <==================== 
	-----------------------------------------------------------
	 Reference Energy          =    -706.9100219083401271 [Eh]
	 Singles Energy            =      -0.0000000000000000 [Eh]
	 Same-Spin Energy          =      -0.3599857740883913 [Eh]
	 Opposite-Spin Energy      =      -1.1681475339354894 [Eh]
	 Correlation Energy        =      -1.5281333080238806 [Eh]
	 Total Energy              =    -708.4381552163639526 [Eh]
	-----------------------------------------------------------
	 ================> DF-SCS-MP2 Energies <================== 
	-----------------------------------------------------------
	 SCS Same-Spin Scale       =       0.3333333333333333 [-]
	 SCS Opposite-Spin Scale   =       1.2000000000000000 [-]
	 SCS Same-Spin Energy      =      -0.1199952580294638 [Eh]
	 SCS Opposite-Spin Energy  =      -1.4017770407225874 [Eh]
	 SCS Correlation Energy    =      -1.5217722987520510 [Eh]
	 SCS Total Energy          =    -708.4317942070921390 [Eh]
	-----------------------------------------------------------


*** tstop() called on cmpsrv002 at Thu Sep 26 15:35:46 2024
Module time:
	user time   =      69.71 seconds =       1.16 minutes
	system time =       5.27 seconds =       0.09 minutes
	total time  =         93 seconds =       1.55 minutes
Total time:
	user time   =     318.86 seconds =       5.31 minutes
	system time =      22.22 seconds =       0.37 minutes
	total time  =        613 seconds =      10.22 minutes

  //>>>>>>>>>>>>>>>>>>>>>>>>>>>>>>>>>>>//
  //            Monomer A HF           //
  //<<<<<<<<<<<<<<<<<<<<<<<<<<<<<<<<<<<//

   => Libint2 <=

    Primary   basis highest AM E, G, H:  6, 6, 3
    Auxiliary basis highest AM E, G, H:  7, 7, 4
    Onebody   basis highest AM E, G, H:  -, -, -
    Solid Harmonics ordering:            Gaussian

*** tstart() called on cmpsrv002
*** at Thu Sep 26 15:35:46 2024

   => Loading Basis Set <=

    Name: THIS_BASIS
    Role: ORBITAL
    Keyword: BASIS
    atoms 1, 3-4, 11-13 entry H          line    40 file /home/vance/anaconda3/envs/p4env/share/psi4/basis/aug-cc-pvqz.gbs 
    atoms 2             entry CL         line  1222 file /home/vance/anaconda3/envs/p4env/share/psi4/basis/aug-cc-pvqz.gbs 
    atoms 5-7, 9-10     entry C          line   303 file /home/vance/anaconda3/envs/p4env/share/psi4/basis/aug-cc-pvqz.gbs 
    atoms 8             entry N          line   363 file /home/vance/anaconda3/envs/p4env/share/psi4/basis/aug-cc-pvqz.gbs 


         ---------------------------------------------------------
                                   SCF
               by Justin Turney, Rob Parrish, Andy Simmonett
                          and Daniel G. A. Smith
                              RHF Reference
                        4 Threads,   7629 MiB Core
         ---------------------------------------------------------

  ==> Geometry <==

    Molecular point group: c1
    Full point group: C2v

    Geometry (in Angstrom), charge = 0, multiplicity = 1:

       Center              X                  Y                   Z               Mass       
    ------------   -----------------  -----------------  -----------------  -----------------
         H            0.000000000000     0.000000000000     1.625880607536     1.007825032230
         CL           0.000000000000     0.000000000000     2.993340607536    34.968852682000
      Gh(H)           0.000000000000    -2.147710000000    -2.548809392464     1.007825032230
      Gh(H)           0.000000000000    -2.051420000000    -0.055279392464     1.007825032230
      Gh(C)           0.000000000000     0.000000000000    -2.742609392464    12.000000000000
      Gh(C)           0.000000000000    -1.196400000000    -2.038489392464    12.000000000000
      Gh(C)           0.000000000000    -1.149310000000    -0.652559392464    12.000000000000
      Gh(N)           0.000000000000     0.000000000000     0.020440607536    14.003074004430
      Gh(C)          -0.000000000000     1.149310000000    -0.652559392464    12.000000000000
      Gh(C)          -0.000000000000     1.196400000000    -2.038489392464    12.000000000000
      Gh(H)          -0.000000000000     2.051420000000    -0.055279392464     1.007825032230
      Gh(H)          -0.000000000000     2.147710000000    -2.548809392464     1.007825032230
      Gh(H)           0.000000000000     0.000000000000    -3.823189392464     1.007825032230

  Running in c1 symmetry.

  Rotational constants: A =      0.20108  B =      0.03099  C =      0.02685 [cm^-1]
  Rotational constants: A =   6028.26605  B =    928.93845  C =    804.90492 [MHz]
  Nuclear repulsion =    6.578629416136486

  Charge       = 0
  Multiplicity = 1
  Electrons    = 18
  Nalpha       = 9
  Nbeta        = 9

  ==> Algorithm <==

  SCF Algorithm Type is DF.
  DIIS enabled.
  MOM disabled.
  Fractional occupation disabled.
  Guess Type is SAD.
  Energy threshold   = 1.00e-08
  Density threshold  = 1.00e-08
  Integral threshold = 1.00e-12

  ==> Primary Basis <==

  Basis Set: THIS_BASIS
    Blend: AUG-CC-PVQZ
    Number of shells: 226
    Number of basis functions: 840
    Number of Cartesian functions: 1069
    Spherical Harmonics?: true
    Max angular momentum: 4

   => Loading Basis Set <=

    Name: (THIS_BASIS AUX)
    Role: JKFIT
    Keyword: DF_BASIS_SCF
    atoms 1, 3-4, 11-13 entry H          line    70 file /home/vance/anaconda3/envs/p4env/share/psi4/basis/aug-cc-pvqz-jkfit.gbs 
    atoms 2             entry CL         line   904 file /home/vance/anaconda3/envs/p4env/share/psi4/basis/aug-cc-pvqz-jkfit.gbs 
    atoms 5-7, 9-10     entry C          line   178 file /home/vance/anaconda3/envs/p4env/share/psi4/basis/aug-cc-pvqz-jkfit.gbs 
    atoms 8             entry N          line   248 file /home/vance/anaconda3/envs/p4env/share/psi4/basis/aug-cc-pvqz-jkfit.gbs 

  ==> Integral Setup <==

  ==> DiskDFJK: Density-Fitted J/K Matrices <==

    J tasked:                  Yes
    K tasked:                  Yes
    wK tasked:                  No
    OpenMP threads:              4
    Integrals threads:           4
    Memory [MiB]:             5722
    Algorithm:                Core
    Integral Cache:           LOAD
    Schwarz Cutoff:          1E-12
    Fitting Condition:       1E-10

   => Auxiliary Basis Set <=

  Basis Set: (THIS_BASIS AUX)
    Blend: AUG-CC-PVQZ-JKFIT
    Number of shells: 358
    Number of basis functions: 1492
    Number of Cartesian functions: 2041
    Spherical Harmonics?: true
    Max angular momentum: 5

  Minimum eigenvalue in the overlap matrix is 5.4016599630E-07.
  Reciprocal condition number of the overlap matrix is 2.9316936344E-08.
    Using symmetric orthogonalization.

  ==> Pre-Iterations <==

  SCF Guess: Superposition of Atomic Densities via on-the-fly atomic UHF (no occupation information).

   -------------------------
    Irrep   Nso     Nmo    
   -------------------------
     A        840     840 
   -------------------------
    Total     840     840
   -------------------------

  ==> Iterations <==

                           Total Energy        Delta E     RMS |[F,P]|

   @DF-RHF iter SAD:  -459.85524087050811   -4.59855e+02   0.00000e+00 
   @DF-RHF iter   1:  -460.08190657669542   -2.26666e-01   2.28143e-04 ADIIS/DIIS
   @DF-RHF iter   2:  -460.10248665937354   -2.05801e-02   9.81195e-05 DIIS
   @DF-RHF iter   3:  -460.10542061600376   -2.93396e-03   1.82381e-05 DIIS
   @DF-RHF iter   4:  -460.10577545381705   -3.54838e-04   5.27119e-06 DIIS
   @DF-RHF iter   5:  -460.10581042664984   -3.49728e-05   7.51966e-07 DIIS
   @DF-RHF iter   6:  -460.10581105063528   -6.23985e-07   1.55941e-07 DIIS
   @DF-RHF iter   7:  -460.10581106498398   -1.43487e-08   3.57257e-08 DIIS
   @DF-RHF iter   8:  -460.10581106610960   -1.12561e-09   7.20875e-09 DIIS
  Energy and wave function converged.


  ==> Post-Iterations <==

    Orbital Energies [Eh]
    ---------------------

    Doubly Occupied:                                                      

       1A   -104.853144     2A    -10.576676     3A     -8.043761  
       4A     -8.042096     5A     -8.042096     6A     -1.101466  
       7A     -0.605717     8A     -0.474778     9A     -0.474772  

    Virtual:                                                              

      10A      0.013036    11A      0.026921    12A      0.029144  
      13A      0.044033    14A      0.045740    15A      0.048953  
      16A      0.059331    17A      0.065269    18A      0.079992  
      19A      0.080329    20A      0.080894    21A      0.081622  
      22A      0.088000    23A      0.094844    24A      0.105160  
      25A      0.110350    26A      0.111180    27A      0.111506  
      28A      0.115535    29A      0.120766    30A      0.128171  
      31A      0.128993    32A      0.133183    33A      0.142927  
      34A      0.151661    35A      0.154936    36A      0.158814  
      37A      0.162866    38A      0.167785    39A      0.177798  
      40A      0.205858    41A      0.211898    42A      0.214867  
      43A      0.216934    44A      0.223620    45A      0.223986  
      46A      0.228711    47A      0.237305    48A      0.248705  
      49A      0.250249    50A      0.254276    51A      0.258922  
      52A      0.260472    53A      0.265605    54A      0.281951  
      55A      0.282195    56A      0.282441    57A      0.293776  
      58A      0.296619    59A      0.299833    60A      0.302187  
      61A      0.306581    62A      0.310217    63A      0.315877  
      64A      0.326675    65A      0.327867    66A      0.327944  
      67A      0.337562    68A      0.338828    69A      0.342377  
      70A      0.349815    71A      0.354573    72A      0.363980  
      73A      0.367996    74A      0.368483    75A      0.369390  
      76A      0.371480    77A      0.375123    78A      0.390163  
      79A      0.402353    80A      0.403843    81A      0.426397  
      82A      0.427517    83A      0.435126    84A      0.440590  
      85A      0.443948    86A      0.452123    87A      0.452440  
      88A      0.460116    89A      0.461530    90A      0.477799  
      91A      0.479515    92A      0.482379    93A      0.483379  
      94A      0.488296    95A      0.499101    96A      0.513644  
      97A      0.516773    98A      0.524372    99A      0.526321  
     100A      0.532583   101A      0.534917   102A      0.538884  
     103A      0.540272   104A      0.560000   105A      0.569724  
     106A      0.574089   107A      0.582528   108A      0.585232  
     109A      0.586140   110A      0.588428   111A      0.594395  
     112A      0.609790   113A      0.610002   114A      0.611608  
     115A      0.618780   116A      0.629325   117A      0.633811  
     118A      0.646876   119A      0.654799   120A      0.674801  
     121A      0.674918   122A      0.676544   123A      0.688639  
     124A      0.692229   125A      0.697889   126A      0.713339  
     127A      0.713564   128A      0.714260   129A      0.739808  
     130A      0.741375   131A      0.758652   132A      0.765576  
     133A      0.769592   134A      0.770992   135A      0.773597  
     136A      0.786350   137A      0.796707   138A      0.797394  
     139A      0.797735   140A      0.798445   141A      0.805009  
     142A      0.812042   143A      0.813122   144A      0.824501  
     145A      0.830992   146A      0.849436   147A      0.852313  
     148A      0.865511   149A      0.865904   150A      0.867079  
     151A      0.882020   152A      0.882136   153A      0.891075  
     154A      0.895299   155A      0.912427   156A      0.930125  
     157A      0.930759   158A      0.942799   159A      0.952596  
     160A      0.956385   161A      0.957993   162A      0.961455  
     163A      0.964569   164A      0.973516   165A      0.979746  
     166A      0.981730   167A      0.982973   168A      0.992035  
     169A      0.999461   170A      1.010383   171A      1.016629  
     172A      1.027100   173A      1.031857   174A      1.034653  
     175A      1.046908   176A      1.053766   177A      1.056215  
     178A      1.062230   179A      1.063646   180A      1.070944  
     181A      1.075216   182A      1.076939   183A      1.086493  
     184A      1.090977   185A      1.099848   186A      1.099859  
     187A      1.101247   188A      1.114087   189A      1.118336  
     190A      1.140254   191A      1.143593   192A      1.149471  
     193A      1.162880   194A      1.174231   195A      1.176973  
     196A      1.199683   197A      1.201184   198A      1.228832  
     199A      1.235515   200A      1.238632   201A      1.242317  
     202A      1.250485   203A      1.277982   204A      1.279566  
     205A      1.289297   206A      1.295467   207A      1.295731  
     208A      1.300884   209A      1.309709   210A      1.311670  
     211A      1.313370   212A      1.348959   213A      1.366239  
     214A      1.367169   215A      1.371069   216A      1.382083  
     217A      1.391669   218A      1.439780   219A      1.441296  
     220A      1.461078   221A      1.463596   222A      1.464416  
     223A      1.485161   224A      1.489625   225A      1.496332  
     226A      1.528822   227A      1.533752   228A      1.538813  
     229A      1.541296   230A      1.554197   231A      1.563034  
     232A      1.567221   233A      1.573967   234A      1.579788  
     235A      1.583680   236A      1.590089   237A      1.597197  
     238A      1.601779   239A      1.618072   240A      1.634215  
     241A      1.635841   242A      1.637303   243A      1.667900  
     244A      1.671620   245A      1.677030   246A      1.705754  
     247A      1.710785   248A      1.724908   249A      1.727573  
     250A      1.735333   251A      1.749395   252A      1.755791  
     253A      1.761255   254A      1.765002   255A      1.765265  
     256A      1.778396   257A      1.779615   258A      1.800963  
     259A      1.802135   260A      1.802602   261A      1.807082  
     262A      1.807980   263A      1.817933   264A      1.820862  
     265A      1.825927   266A      1.827905   267A      1.843804  
     268A      1.857846   269A      1.860373   270A      1.863762  
     271A      1.870622   272A      1.893415   273A      1.897011  
     274A      1.901761   275A      1.930004   276A      1.931118  
     277A      1.941862   278A      1.945537   279A      1.962809  
     280A      1.968566   281A      1.971312   282A      1.977526  
     283A      1.985056   284A      1.994253   285A      2.000014  
     286A      2.006547   287A      2.011952   288A      2.017230  
     289A      2.018402   290A      2.035992   291A      2.044668  
     292A      2.056322   293A      2.064583   294A      2.086698  
     295A      2.090905   296A      2.091666   297A      2.096093  
     298A      2.107296   299A      2.108197   300A      2.120973  
     301A      2.122705   302A      2.128407   303A      2.132943  
     304A      2.135132   305A      2.143398   306A      2.147244  
     307A      2.157094   308A      2.160289   309A      2.192515  
     310A      2.193538   311A      2.195077   312A      2.219874  
     313A      2.222995   314A      2.236946   315A      2.246559  
     316A      2.271659   317A      2.272781   318A      2.273227  
     319A      2.293926   320A      2.305090   321A      2.307044  
     322A      2.310203   323A      2.327319   324A      2.332540  
     325A      2.343088   326A      2.344824   327A      2.365939  
     328A      2.369227   329A      2.377498   330A      2.396550  
     331A      2.403864   332A      2.404283   333A      2.419902  
     334A      2.420053   335A      2.421282   336A      2.446858  
     337A      2.458431   338A      2.470783   339A      2.483211  
     340A      2.496889   341A      2.501851   342A      2.509683  
     343A      2.514316   344A      2.535768   345A      2.540291  
     346A      2.540441   347A      2.551648   348A      2.583834  
     349A      2.584769   350A      2.600147   351A      2.607126  
     352A      2.615610   353A      2.621637   354A      2.627524  
     355A      2.636076   356A      2.642142   357A      2.647311  
     358A      2.669496   359A      2.679519   360A      2.693598  
     361A      2.699249   362A      2.701828   363A      2.749000  
     364A      2.753287   365A      2.753684   366A      2.754526  
     367A      2.787535   368A      2.797489   369A      2.802292  
     370A      2.816268   371A      2.828487   372A      2.832278  
     373A      2.860997   374A      2.865206   375A      2.867439  
     376A      2.873728   377A      2.896977   378A      2.904317  
     379A      2.913576   380A      2.944761   381A      2.946001  
     382A      2.952787   383A      2.954376   384A      2.977952  
     385A      3.008779   386A      3.014099   387A      3.015944  
     388A      3.023024   389A      3.037670   390A      3.053478  
     391A      3.055369   392A      3.060780   393A      3.061798  
     394A      3.074098   395A      3.099589   396A      3.103602  
     397A      3.111432   398A      3.126903   399A      3.127123  
     400A      3.154939   401A      3.155150   402A      3.161857  
     403A      3.164368   404A      3.213696   405A      3.234342  
     406A      3.243210   407A      3.259712   408A      3.265027  
     409A      3.291198   410A      3.293791   411A      3.294804  
     412A      3.313757   413A      3.314991   414A      3.318490  
     415A      3.323503   416A      3.358820   417A      3.366087  
     418A      3.377210   419A      3.380210   420A      3.395453  
     421A      3.399683   422A      3.421685   423A      3.425794  
     424A      3.430400   425A      3.447402   426A      3.479469  
     427A      3.489778   428A      3.507193   429A      3.526056  
     430A      3.537047   431A      3.551268   432A      3.553750  
     433A      3.559953   434A      3.584541   435A      3.594606  
     436A      3.627099   437A      3.663500   438A      3.673389  
     439A      3.690135   440A      3.700765   441A      3.707455  
     442A      3.711858   443A      3.720520   444A      3.728900  
     445A      3.766415   446A      3.792527   447A      3.800131  
     448A      3.819213   449A      3.822564   450A      3.850161  
     451A      3.883763   452A      3.907645   453A      3.916260  
     454A      3.916348   455A      3.926970   456A      3.944459  
     457A      3.944853   458A      3.953834   459A      3.963296  
     460A      3.967216   461A      3.977900   462A      4.016787  
     463A      4.026843   464A      4.032539   465A      4.052741  
     466A      4.100027   467A      4.112463   468A      4.115555  
     469A      4.132901   470A      4.153785   471A      4.164262  
     472A      4.166771   473A      4.174374   474A      4.195521  
     475A      4.207394   476A      4.217762   477A      4.256770  
     478A      4.277470   479A      4.297559   480A      4.310312  
     481A      4.317478   482A      4.324350   483A      4.359442  
     484A      4.391778   485A      4.402737   486A      4.414224  
     487A      4.417143   488A      4.422738   489A      4.432533  
     490A      4.457256   491A      4.478110   492A      4.502006  
     493A      4.518874   494A      4.525116   495A      4.543746  
     496A      4.585097   497A      4.590408   498A      4.604063  
     499A      4.633318   500A      4.635557   501A      4.639582  
     502A      4.690936   503A      4.706438   504A      4.710744  
     505A      4.722955   506A      4.725257   507A      4.730003  
     508A      4.736345   509A      4.737209   510A      4.758010  
     511A      4.775985   512A      4.803305   513A      4.803733  
     514A      4.823566   515A      4.824537   516A      4.845824  
     517A      4.850872   518A      4.864982   519A      4.889888  
     520A      4.891562   521A      4.921901   522A      4.941191  
     523A      4.973352   524A      4.987046   525A      5.008767  
     526A      5.015548   527A      5.025929   528A      5.055500  
     529A      5.064257   530A      5.086726   531A      5.094106  
     532A      5.104084   533A      5.121909   534A      5.122597  
     535A      5.127184   536A      5.157446   537A      5.164520  
     538A      5.164598   539A      5.166458   540A      5.212689  
     541A      5.213971   542A      5.219434   543A      5.264629  
     544A      5.286431   545A      5.319118   546A      5.329695  
     547A      5.342795   548A      5.348276   549A      5.373880  
     550A      5.382946   551A      5.397568   552A      5.445413  
     553A      5.499702   554A      5.570743   555A      5.575831  
     556A      5.577115   557A      5.592553   558A      5.618154  
     559A      5.637055   560A      5.651617   561A      5.710589  
     562A      5.716664   563A      5.726426   564A      5.783409  
     565A      5.801932   566A      5.882715   567A      5.910245  
     568A      5.984878   569A      6.096026   570A      6.125596  
     571A      6.165263   572A      6.168367   573A      6.243324  
     574A      6.296511   575A      6.323787   576A      6.371113  
     577A      6.444414   578A      6.453040   579A      6.483691  
     580A      6.492063   581A      6.545426   582A      6.560176  
     583A      6.589115   584A      6.619330   585A      6.651003  
     586A      6.655777   587A      6.678985   588A      6.705562  
     589A      6.710310   590A      6.744432   591A      6.752447  
     592A      6.766282   593A      6.782804   594A      6.795287  
     595A      6.831651   596A      6.843073   597A      6.852494  
     598A      6.917309   599A      6.918598   600A      6.928220  
     601A      6.940496   602A      6.995181   603A      7.017735  
     604A      7.031863   605A      7.074571   606A      7.097061  
     607A      7.112114   608A      7.115802   609A      7.157429  
     610A      7.158768   611A      7.188735   612A      7.218891  
     613A      7.252781   614A      7.254243   615A      7.266516  
     616A      7.274906   617A      7.279795   618A      7.327418  
     619A      7.346794   620A      7.352105   621A      7.352940  
     622A      7.354692   623A      7.361195   624A      7.387601  
     625A      7.432540   626A      7.455724   627A      7.457010  
     628A      7.496793   629A      7.508631   630A      7.520376  
     631A      7.555410   632A      7.562606   633A      7.573140  
     634A      7.594273   635A      7.616438   636A      7.624552  
     637A      7.679441   638A      7.729418   639A      7.738822  
     640A      7.760086   641A      7.810650   642A      7.845022  
     643A      7.852084   644A      7.853627   645A      7.872288  
     646A      7.907684   647A      7.937125   648A      7.945691  
     649A      7.949909   650A      7.971091   651A      7.980283  
     652A      8.070376   653A      8.103183   654A      8.104259  
     655A      8.109905   656A      8.115533   657A      8.177702  
     658A      8.205540   659A      8.276656   660A      8.294743  
     661A      8.312353   662A      8.329869   663A      8.334561  
     664A      8.372319   665A      8.426292   666A      8.465492  
     667A      8.480107   668A      8.542703   669A      8.555409  
     670A      8.562624   671A      8.611388   672A      8.678621  
     673A      8.692808   674A      8.723090   675A      8.789003  
     676A      8.798152   677A      8.820938   678A      8.820959  
     679A      8.839212   680A      8.856278   681A      8.893860  
     682A      8.940043   683A      8.962807   684A      8.973263  
     685A      9.017723   686A      9.038539   687A      9.055807  
     688A      9.069132   689A      9.103529   690A      9.111185  
     691A      9.117081   692A      9.137132   693A      9.137437  
     694A      9.209581   695A      9.224510   696A      9.239370  
     697A      9.264902   698A      9.274238   699A      9.287367  
     700A      9.329664   701A      9.333067   702A      9.339245  
     703A      9.392792   704A      9.407342   705A      9.434171  
     706A      9.467939   707A      9.484174   708A      9.540156  
     709A      9.552905   710A      9.563713   711A      9.577574  
     712A      9.613412   713A      9.635745   714A      9.655447  
     715A      9.669642   716A      9.715004   717A      9.721594  
     718A      9.730961   719A      9.736242   720A      9.828011  
     721A      9.836219   722A      9.860101   723A      9.886038  
     724A      9.888284   725A      9.943808   726A      9.962002  
     727A      9.973808   728A      9.980914   729A     10.009896  
     730A     10.039569   731A     10.041659   732A     10.060636  
     733A     10.079910   734A     10.084603   735A     10.097267  
     736A     10.118721   737A     10.164214   738A     10.189521  
     739A     10.198897   740A     10.234536   741A     10.243502  
     742A     10.246073   743A     10.317052   744A     10.338371  
     745A     10.364920   746A     10.460143   747A     10.463017  
     748A     10.484109   749A     10.504676   750A     10.525552  
     751A     10.597060   752A     10.611847   753A     10.644694  
     754A     10.652787   755A     10.667187   756A     10.739577  
     757A     10.766483   758A     10.787273   759A     10.802768  
     760A     10.816983   761A     10.846104   762A     10.868917  
     763A     10.902149   764A     10.927984   765A     10.964843  
     766A     10.971044   767A     10.998684   768A     11.002674  
     769A     11.016447   770A     11.083987   771A     11.167701  
     772A     11.182131   773A     11.188405   774A     11.193553  
     775A     11.230946   776A     11.264874   777A     11.338777  
     778A     11.441975   779A     11.501861   780A     11.585442  
     781A     11.608142   782A     11.660481   783A     11.806379  
     784A     11.829204   785A     11.861416   786A     11.948550  
     787A     12.011264   788A     12.014406   789A     12.127697  
     790A     12.158806   791A     12.171310   792A     12.329486  
     793A     12.335042   794A     12.359192   795A     12.518494  
     796A     12.580378   797A     12.979060   798A     13.083973  
     799A     13.194506   800A     13.203352   801A     13.262501  
     802A     13.285681   803A     13.342766   804A     13.439643  
     805A     13.663261   806A     13.746900   807A     13.852948  
     808A     13.915043   809A     13.955648   810A     14.159838  
     811A     14.189539   812A     14.372127   813A     14.392383  
     814A     14.578726   815A     14.680868   816A     14.820089  
     817A     15.103253   818A     15.146692   819A     15.563962  
     820A     15.954889   821A     16.222865   822A     16.542773  
     823A     16.569776   824A     17.040190   825A     17.325772  
     826A     17.586978   827A     17.787932   828A     17.886559  
     829A     17.897229   830A     17.935449   831A     18.329465  
     832A     20.247988   833A     20.672781   834A     27.320433  
     835A     68.439229   836A     68.661200   837A     69.072901  
     838A     69.461212   839A     69.822453   840A     93.600336  

    Final Occupation by Irrep:
              A 
    DOCC [     9 ]
    NA   [     9 ]
    NB   [     9 ]

  @DF-RHF Final Energy:  -460.10581106610960

   => Energetics <=

    Nuclear Repulsion Energy =              6.5786294161364864
    One-Electron Energy =                -648.9398606010112189
    Two-Electron Energy =                 182.2554201187652154
    Total Energy =                       -460.1058110661095952

Computation Completed


Properties will be evaluated at   0.000000,   0.000000,   0.000000 [a0]

Properties computed using the SCF density matrix


 Multipole Moments:

 ------------------------------------------------------------------------------------
     Multipole            Electronic (a.u.)      Nuclear  (a.u.)        Total (a.u.)
 ------------------------------------------------------------------------------------

 L = 1.  Multiply by 2.5417464519 to convert [e a0] to [Debye]
 Dipole X            :         -0.0000000            0.0000000           -0.0000000
 Dipole Y            :         -0.0000000            0.0000000           -0.0000000
 Dipole Z            :        -99.7445940           99.2345662           -0.5100278
 Magnitude           :                                                    0.5100278

 ------------------------------------------------------------------------------------

*** tstop() called on cmpsrv002 at Thu Sep 26 15:36:44 2024
Module time:
	user time   =     130.93 seconds =       2.18 minutes
	system time =       5.24 seconds =       0.09 minutes
	total time  =         58 seconds =       0.97 minutes
Total time:
	user time   =     449.80 seconds =       7.50 minutes
	system time =      27.46 seconds =       0.46 minutes
	total time  =        671 seconds =      11.18 minutes

*** tstart() called on cmpsrv002
*** at Thu Sep 26 15:36:44 2024


  //>>>>>>>>>>>>>>>>>>>>>>>>>>>>>>>>>>>//
  //               DFMP2               //
  //<<<<<<<<<<<<<<<<<<<<<<<<<<<<<<<<<<<//

   => Loading Basis Set <=

    Name: (THIS_BASIS AUX)
    Role: RIFIT
    Keyword: DF_BASIS_MP2
    atoms 1, 3-4, 11-13 entry H          line    30 file /home/vance/anaconda3/envs/p4env/share/psi4/basis/aug-cc-pvqz-ri.gbs 
    atoms 2             entry CL         line   914 file /home/vance/anaconda3/envs/p4env/share/psi4/basis/aug-cc-pvqz-ri.gbs 
    atoms 5-7, 9-10     entry C          line   184 file /home/vance/anaconda3/envs/p4env/share/psi4/basis/aug-cc-pvqz-ri.gbs 
    atoms 8             entry N          line   258 file /home/vance/anaconda3/envs/p4env/share/psi4/basis/aug-cc-pvqz-ri.gbs 

	 --------------------------------------------------------
	                          DF-MP2                         
	      2nd-Order Density-Fitted Moller-Plesset Theory     
	              RMP2 Wavefunction,   4 Threads             
	                                                         
	        Rob Parrish, Justin Turney, Andy Simmonett,      
	           Ed Hohenstein, and C. David Sherrill          
	 --------------------------------------------------------

   => Auxiliary Basis Set <=

  Basis Set: (THIS_BASIS AUX)
    Blend: AUG-CC-PVQZ-RI
    Number of shells: 380
    Number of basis functions: 1682
    Number of Cartesian functions: 2320
    Spherical Harmonics?: true
    Max angular momentum: 5

	 --------------------------------------------------------
	                 NBF =   840, NAUX =  1682
	 --------------------------------------------------------
	   CLASS    FOCC     OCC    AOCC    AVIR     VIR    FVIR
	   PAIRS       0       9       9     831     831       0
	 --------------------------------------------------------

	 Will attempt to load fitting metric from file 97.

	-----------------------------------------------------------
	 ==================> DF-MP2 Energies <==================== 
	-----------------------------------------------------------
	 Reference Energy          =    -460.1058110661095952 [Eh]
	 Singles Energy            =      -0.0000000000000000 [Eh]
	 Same-Spin Energy          =      -0.0696025336871464 [Eh]
	 Opposite-Spin Energy      =      -0.2211362904657644 [Eh]
	 Correlation Energy        =      -0.2907388241529109 [Eh]
	 Total Energy              =    -460.3965498902625200 [Eh]
	-----------------------------------------------------------
	 ================> DF-SCS-MP2 Energies <================== 
	-----------------------------------------------------------
	 SCS Same-Spin Scale       =       0.3333333333333333 [-]
	 SCS Opposite-Spin Scale   =       1.2000000000000000 [-]
	 SCS Same-Spin Energy      =      -0.0232008445623821 [Eh]
	 SCS Opposite-Spin Energy  =      -0.2653635485589173 [Eh]
	 SCS Correlation Energy    =      -0.2885643931212994 [Eh]
	 SCS Total Energy          =    -460.3943754592309006 [Eh]
	-----------------------------------------------------------


*** tstop() called on cmpsrv002 at Thu Sep 26 15:37:05 2024
Module time:
	user time   =      36.45 seconds =       0.61 minutes
	system time =       5.13 seconds =       0.09 minutes
	total time  =         21 seconds =       0.35 minutes
Total time:
	user time   =     486.25 seconds =       8.10 minutes
	system time =      32.59 seconds =       0.54 minutes
	total time  =        692 seconds =      11.53 minutes

  //>>>>>>>>>>>>>>>>>>>>>>>>>>>>>>>>>>>//
  //            Monomer B HF           //
  //<<<<<<<<<<<<<<<<<<<<<<<<<<<<<<<<<<<//

   => Libint2 <=

    Primary   basis highest AM E, G, H:  6, 6, 3
    Auxiliary basis highest AM E, G, H:  7, 7, 4
    Onebody   basis highest AM E, G, H:  -, -, -
    Solid Harmonics ordering:            Gaussian

*** tstart() called on cmpsrv002
*** at Thu Sep 26 15:37:05 2024

   => Loading Basis Set <=

    Name: THIS_BASIS
    Role: ORBITAL
    Keyword: BASIS
    atoms 1, 3-4, 11-13 entry H          line    40 file /home/vance/anaconda3/envs/p4env/share/psi4/basis/aug-cc-pvqz.gbs 
    atoms 2             entry CL         line  1222 file /home/vance/anaconda3/envs/p4env/share/psi4/basis/aug-cc-pvqz.gbs 
    atoms 5-7, 9-10     entry C          line   303 file /home/vance/anaconda3/envs/p4env/share/psi4/basis/aug-cc-pvqz.gbs 
    atoms 8             entry N          line   363 file /home/vance/anaconda3/envs/p4env/share/psi4/basis/aug-cc-pvqz.gbs 


         ---------------------------------------------------------
                                   SCF
               by Justin Turney, Rob Parrish, Andy Simmonett
                          and Daniel G. A. Smith
                              RHF Reference
                        4 Threads,   7629 MiB Core
         ---------------------------------------------------------

  ==> Geometry <==

    Molecular point group: c1
    Full point group: C2v

    Geometry (in Angstrom), charge = 0, multiplicity = 1:

       Center              X                  Y                   Z               Mass       
    ------------   -----------------  -----------------  -----------------  -----------------
      Gh(H)           0.000000000000     0.000000000000     1.625880607536     1.007825032230
      Gh(CL)          0.000000000000     0.000000000000     2.993340607536    34.968852682000
         H            0.000000000000    -2.147710000000    -2.548809392464     1.007825032230
         H            0.000000000000    -2.051420000000    -0.055279392464     1.007825032230
         C            0.000000000000     0.000000000000    -2.742609392464    12.000000000000
         C            0.000000000000    -1.196400000000    -2.038489392464    12.000000000000
         C            0.000000000000    -1.149310000000    -0.652559392464    12.000000000000
         N            0.000000000000     0.000000000000     0.020440607536    14.003074004430
         C           -0.000000000000     1.149310000000    -0.652559392464    12.000000000000
         C           -0.000000000000     1.196400000000    -2.038489392464    12.000000000000
         H           -0.000000000000     2.051420000000    -0.055279392464     1.007825032230
         H           -0.000000000000     2.147710000000    -2.548809392464     1.007825032230
         H            0.000000000000     0.000000000000    -3.823189392464     1.007825032230

  Running in c1 symmetry.

  Rotational constants: A =      0.20108  B =      0.03099  C =      0.02685 [cm^-1]
  Rotational constants: A =   6028.26605  B =    928.93845  C =    804.90492 [MHz]
  Nuclear repulsion =  206.982866743598237

  Charge       = 0
  Multiplicity = 1
  Electrons    = 42
  Nalpha       = 21
  Nbeta        = 21

  ==> Algorithm <==

  SCF Algorithm Type is DF.
  DIIS enabled.
  MOM disabled.
  Fractional occupation disabled.
  Guess Type is SAD.
  Energy threshold   = 1.00e-08
  Density threshold  = 1.00e-08
  Integral threshold = 1.00e-12

  ==> Primary Basis <==

  Basis Set: THIS_BASIS
    Blend: AUG-CC-PVQZ
    Number of shells: 226
    Number of basis functions: 840
    Number of Cartesian functions: 1069
    Spherical Harmonics?: true
    Max angular momentum: 4

   => Loading Basis Set <=

    Name: (THIS_BASIS AUX)
    Role: JKFIT
    Keyword: DF_BASIS_SCF
    atoms 1, 3-4, 11-13 entry H          line    70 file /home/vance/anaconda3/envs/p4env/share/psi4/basis/aug-cc-pvqz-jkfit.gbs 
    atoms 2             entry CL         line   904 file /home/vance/anaconda3/envs/p4env/share/psi4/basis/aug-cc-pvqz-jkfit.gbs 
    atoms 5-7, 9-10     entry C          line   178 file /home/vance/anaconda3/envs/p4env/share/psi4/basis/aug-cc-pvqz-jkfit.gbs 
    atoms 8             entry N          line   248 file /home/vance/anaconda3/envs/p4env/share/psi4/basis/aug-cc-pvqz-jkfit.gbs 

  ==> Integral Setup <==

  ==> DiskDFJK: Density-Fitted J/K Matrices <==

    J tasked:                  Yes
    K tasked:                  Yes
    wK tasked:                  No
    OpenMP threads:              4
    Integrals threads:           4
    Memory [MiB]:             5722
    Algorithm:                Core
    Integral Cache:           LOAD
    Schwarz Cutoff:          1E-12
    Fitting Condition:       1E-10

   => Auxiliary Basis Set <=

  Basis Set: (THIS_BASIS AUX)
    Blend: AUG-CC-PVQZ-JKFIT
    Number of shells: 358
    Number of basis functions: 1492
    Number of Cartesian functions: 2041
    Spherical Harmonics?: true
    Max angular momentum: 5

  Minimum eigenvalue in the overlap matrix is 5.4016599630E-07.
  Reciprocal condition number of the overlap matrix is 2.9316936344E-08.
    Using symmetric orthogonalization.

  ==> Pre-Iterations <==

  SCF Guess: Superposition of Atomic Densities via on-the-fly atomic UHF (no occupation information).

   -------------------------
    Irrep   Nso     Nmo    
   -------------------------
     A        840     840 
   -------------------------
    Total     840     840
   -------------------------

  ==> Iterations <==

                           Total Energy        Delta E     RMS |[F,P]|

   @DF-RHF iter SAD:  -246.22486500933030   -2.46225e+02   0.00000e+00 
   @DF-RHF iter   1:  -246.64408921908438   -4.19224e-01   6.00267e-04 ADIIS/DIIS
   @DF-RHF iter   2:  -246.76643953242666   -1.22350e-01   2.80343e-04 ADIIS/DIIS
   @DF-RHF iter   3:  -246.79204403171977   -2.56045e-02   5.41131e-05 DIIS
   @DF-RHF iter   4:  -246.79347284427325   -1.42881e-03   1.67201e-05 DIIS
   @DF-RHF iter   5:  -246.79356883736043   -9.59931e-05   5.19382e-06 DIIS
   @DF-RHF iter   6:  -246.79358048608222   -1.16487e-05   1.22748e-06 DIIS
   @DF-RHF iter   7:  -246.79358140840966   -9.22327e-07   4.53062e-07 DIIS
   @DF-RHF iter   8:  -246.79358154693210   -1.38522e-07   2.06005e-07 DIIS
   @DF-RHF iter   9:  -246.79358159919968   -5.22676e-08   6.70425e-08 DIIS
   @DF-RHF iter  10:  -246.79358160768621   -8.48652e-09   2.27467e-08 DIIS
   @DF-RHF iter  11:  -246.79358160881443   -1.12823e-09   1.29653e-08 DIIS
   @DF-RHF iter  12:  -246.79358160904769   -2.33257e-10   2.97978e-09 DIIS
  Energy and wave function converged.


  ==> Post-Iterations <==

    Orbital Energies [Eh]
    ---------------------

    Doubly Occupied:                                                      

       1A    -15.560472     2A    -11.272263     3A    -11.272245  
       4A    -11.257400     5A    -11.239948     6A    -11.239893  
       7A     -1.259692     8A     -1.088992     9A     -1.037209  
      10A     -0.858660    11A     -0.858541    12A     -0.723885  
      13A     -0.662838    14A     -0.654492    15A     -0.602557  
      16A     -0.575914    17A     -0.543827    18A     -0.523323  
      19A     -0.413750    20A     -0.383770    21A     -0.349865  

    Virtual:                                                              

      22A      0.022817    23A      0.028743    24A      0.031539  
      25A      0.043016    26A      0.043824    27A      0.060253  
      28A      0.062770    29A      0.081384    30A      0.084920  
      31A      0.087516    32A      0.088852    33A      0.090774  
      34A      0.097319    35A      0.098546    36A      0.099923  
      37A      0.105030    38A      0.113237    39A      0.114580  
      40A      0.120058    41A      0.121647    42A      0.124258  
      43A      0.129777    44A      0.131392    45A      0.132208  
      46A      0.137230    47A      0.150724    48A      0.154125  
      49A      0.158521    50A      0.189344    51A      0.205581  
      52A      0.210117    53A      0.212023    54A      0.215130  
      55A      0.220842    56A      0.229633    57A      0.238566  
      58A      0.245315    59A      0.251511    60A      0.252418  
      61A      0.253724    62A      0.253740    63A      0.256231  
      64A      0.280374    65A      0.280855    66A      0.282336  
      67A      0.283364    68A      0.288532    69A      0.288733  
      70A      0.295234    71A      0.301840    72A      0.305599  
      73A      0.309692    74A      0.314408    75A      0.318494  
      76A      0.319016    77A      0.322721    78A      0.334449  
      79A      0.341020    80A      0.346446    81A      0.356907  
      82A      0.357683    83A      0.366102    84A      0.367528  
      85A      0.372362    86A      0.376543    87A      0.389341  
      88A      0.391202    89A      0.394717    90A      0.400673  
      91A      0.406950    92A      0.416529    93A      0.421086  
      94A      0.422845    95A      0.427934    96A      0.432508  
      97A      0.435545    98A      0.441875    99A      0.449705  
     100A      0.460180   101A      0.460831   102A      0.462015  
     103A      0.463168   104A      0.466487   105A      0.475258  
     106A      0.487993   107A      0.489878   108A      0.501780  
     109A      0.508316   110A      0.510143   111A      0.516874  
     112A      0.518023   113A      0.519856   114A      0.527330  
     115A      0.539507   116A      0.544115   117A      0.564397  
     118A      0.568847   119A      0.575411   120A      0.582359  
     121A      0.586380   122A      0.587022   123A      0.591879  
     124A      0.601802   125A      0.604412   126A      0.622658  
     127A      0.636350   128A      0.636603   129A      0.655965  
     130A      0.659214   131A      0.667916   132A      0.668238  
     133A      0.669469   134A      0.686103   135A      0.697329  
     136A      0.704958   137A      0.713726   138A      0.714154  
     139A      0.719734   140A      0.728834   141A      0.733455  
     142A      0.736293   143A      0.742552   144A      0.742893  
     145A      0.759443   146A      0.767324   147A      0.777739  
     148A      0.780906   149A      0.785894   150A      0.787095  
     151A      0.787898   152A      0.789807   153A      0.799054  
     154A      0.800806   155A      0.805072   156A      0.809037  
     157A      0.827100   158A      0.828073   159A      0.839939  
     160A      0.841719   161A      0.852789   162A      0.862815  
     163A      0.863405   164A      0.885007   165A      0.885060  
     166A      0.897412   167A      0.898432   168A      0.899866  
     169A      0.908153   170A      0.924835   171A      0.928759  
     172A      0.931454   173A      0.938589   174A      0.943668  
     175A      0.951955   176A      0.954436   177A      0.969377  
     178A      0.975045   179A      0.977231   180A      0.981373  
     181A      0.987096   182A      0.994959   183A      1.004724  
     184A      1.005837   185A      1.012804   186A      1.021282  
     187A      1.022884   188A      1.023514   189A      1.038878  
     190A      1.040497   191A      1.042516   192A      1.050908  
     193A      1.051626   194A      1.064656   195A      1.086907  
     196A      1.089113   197A      1.090041   198A      1.099229  
     199A      1.112176   200A      1.121356   201A      1.129693  
     202A      1.141051   203A      1.147509   204A      1.158678  
     205A      1.162553   206A      1.168656   207A      1.170821  
     208A      1.178544   209A      1.182288   210A      1.193830  
     211A      1.205934   212A      1.208198   213A      1.220435  
     214A      1.229947   215A      1.239843   216A      1.241996  
     217A      1.261110   218A      1.267252   219A      1.268270  
     220A      1.280641   221A      1.292960   222A      1.304570  
     223A      1.312784   224A      1.321579   225A      1.340264  
     226A      1.344468   227A      1.369761   228A      1.372344  
     229A      1.380327   230A      1.383399   231A      1.390854  
     232A      1.391034   233A      1.397632   234A      1.401019  
     235A      1.408418   236A      1.420927   237A      1.424977  
     238A      1.443890   239A      1.448304   240A      1.463082  
     241A      1.477258   242A      1.489677   243A      1.510589  
     244A      1.521176   245A      1.523407   246A      1.528372  
     247A      1.529557   248A      1.544645   249A      1.558149  
     250A      1.569160   251A      1.576187   252A      1.582725  
     253A      1.587138   254A      1.595992   255A      1.605260  
     256A      1.609793   257A      1.616838   258A      1.630312  
     259A      1.637630   260A      1.639565   261A      1.653924  
     262A      1.662337   263A      1.678451   264A      1.701141  
     265A      1.710021   266A      1.725406   267A      1.731243  
     268A      1.741037   269A      1.758713   270A      1.760683  
     271A      1.769992   272A      1.785603   273A      1.798992  
     274A      1.800614   275A      1.825742   276A      1.828699  
     277A      1.839896   278A      1.847303   279A      1.848838  
     280A      1.865827   281A      1.880818   282A      1.893989  
     283A      1.895434   284A      1.910843   285A      1.911763  
     286A      1.914319   287A      1.915880   288A      1.939679  
     289A      1.951063   290A      1.951509   291A      1.953703  
     292A      1.968546   293A      1.973720   294A      1.976811  
     295A      1.979944   296A      1.981562   297A      1.990255  
[...]
     382A      2.696264   383A      2.699418   384A      2.720948  
     385A      2.741504   386A      2.747999   387A      2.762822  
     388A      2.786579   389A      2.790642   390A      2.791614  
     391A      2.807565   392A      2.811880   393A      2.826390  
     394A      2.837034   395A      2.860815   396A      2.867890  
     397A      2.868315   398A      2.875819   399A      2.892657  
     400A      2.896357   401A      2.908935   402A      2.942365  
     403A      2.947742   404A      2.949946   405A      2.949978  
     406A      2.970930   407A      2.999032   408A      3.007827  
     409A      3.010752   410A      3.022579   411A      3.045103  
     412A      3.045770   413A      3.062628   414A      3.076251  
     415A      3.115928   416A      3.132422   417A      3.136389  
     418A      3.137784   419A      3.141801   420A      3.148153  
     421A      3.158340   422A      3.168328   423A      3.174591  
     424A      3.200475   425A      3.208239   426A      3.226799  
     427A      3.230463   428A      3.266865   429A      3.274290  
     430A      3.288075   431A      3.292116   432A      3.295812  
     433A      3.309784   434A      3.317979   435A      3.323057  
     436A      3.357750   437A      3.366653   438A      3.387346  
     439A      3.400583   440A      3.406668   441A      3.408093  
     442A      3.409587   443A      3.426698   444A      3.428755  
     445A      3.484068   446A      3.488111   447A      3.492736  
     448A      3.498544   449A      3.538785   450A      3.550267  
     451A      3.570994   452A      3.578460   453A      3.590697  
     454A      3.600144   455A      3.614426   456A      3.617497  
     457A      3.644676   458A      3.660508   459A      3.660892  
     460A      3.680531   461A      3.715991   462A      3.735719  
     463A      3.755266   464A      3.774210   465A      3.781512  
     466A      3.793247   467A      3.820266   468A      3.821943  
     469A      3.822363   470A      3.829058   471A      3.838680  
     472A      3.841282   473A      3.851686   474A      3.915496  
     475A      3.927806   476A      3.928913   477A      3.930148  
     478A      3.959809   479A      3.985432   480A      3.990095  
     481A      4.002213   482A      4.003626   483A      4.042134  
     484A      4.065454   485A      4.073287   486A      4.083578  
     487A      4.093888   488A      4.094344   489A      4.117996  
     490A      4.130286   491A      4.148282   492A      4.151999  
     493A      4.179763   494A      4.213921   495A      4.232088  
     496A      4.245813   497A      4.278213   498A      4.296864  
     499A      4.306431   500A      4.309779   501A      4.320896  
     502A      4.338153   503A      4.359582   504A      4.369228  
     505A      4.404864   506A      4.411768   507A      4.421199  
     508A      4.429932   509A      4.445699   510A      4.451514  
     511A      4.459655   512A      4.473670   513A      4.504916  
     514A      4.529896   515A      4.547583   516A      4.551086  
     517A      4.564699   518A      4.603090   519A      4.615992  
     520A      4.638830   521A      4.674561   522A      4.681570  
     523A      4.687672   524A      4.707942   525A      4.724702  
     526A      4.762245   527A      4.778741   528A      4.825869  
     529A      4.831029   530A      4.858389   531A      4.875393  
     532A      4.916496   533A      4.919907   534A      4.933930  
     535A      4.946976   536A      4.974231   537A      4.975205  
     538A      5.003820   539A      5.013447   540A      5.024935  
     541A      5.052768   542A      5.065721   543A      5.079067  
     544A      5.093056   545A      5.207480   546A      5.251328  
     547A      5.253555   548A      5.298657   549A      5.353498  
     550A      5.376250   551A      5.403971   552A      5.415803  
     553A      5.439891   554A      5.441353   555A      5.456973  
     556A      5.478631   557A      5.486237   558A      5.512422  
     559A      5.532949   560A      5.565647   561A      5.604916  
     562A      5.625601   563A      5.637653   564A      5.716640  
     565A      5.740867   566A      5.822487   567A      5.835266  
     568A      5.857838   569A      5.861306   570A      5.906863  
     571A      5.912382   572A      5.954851   573A      5.975511  
     574A      6.021809   575A      6.028400   576A      6.071067  
     577A      6.077151   578A      6.077699   579A      6.113765  
     580A      6.133566   581A      6.179235   582A      6.183332  
     583A      6.184897   584A      6.228032   585A      6.232216  
     586A      6.235972   587A      6.276724   588A      6.281871  
     589A      6.306360   590A      6.308690   591A      6.317173  
     592A      6.328639   593A      6.383367   594A      6.393306  
     595A      6.398330   596A      6.398596   597A      6.430627  
     598A      6.450600   599A      6.466771   600A      6.467597  
     601A      6.511798   602A      6.546864   603A      6.554344  
     604A      6.575605   605A      6.579023   606A      6.581559  
     607A      6.622614   608A      6.646416   609A      6.650128  
     610A      6.670083   611A      6.686810   612A      6.691736  
     613A      6.729191   614A      6.732482   615A      6.742622  
     616A      6.744183   617A      6.753271   618A      6.771175  
     619A      6.803743   620A      6.834655   621A      6.867384  
     622A      6.880641   623A      6.881461   624A      6.905742  
     625A      6.942699   626A      6.958397   627A      6.966569  
     628A      6.968021   629A      7.009409   630A      7.023375  
     631A      7.029524   632A      7.033039   633A      7.054738  
     634A      7.064109   635A      7.064750   636A      7.083660  
     637A      7.106313   638A      7.113750   639A      7.139492  
     640A      7.154122   641A      7.163791   642A      7.183651  
     643A      7.194060   644A      7.206414   645A      7.240971  
     646A      7.257160   647A      7.271293   648A      7.292274  
     649A      7.298689   650A      7.303150   651A      7.338960  
     652A      7.340574   653A      7.377032   654A      7.381195  
     655A      7.404816   656A      7.419370   657A      7.422638  
     658A      7.443797   659A      7.461610   660A      7.502662  
     661A      7.539158   662A      7.540508   663A      7.582078  
     664A      7.586945   665A      7.613254   666A      7.624586  
     667A      7.637415   668A      7.665741   669A      7.690967  
     670A      7.699012   671A      7.716854   672A      7.740309  
     673A      7.752975   674A      7.804626   675A      7.828202  
     676A      7.831885   677A      7.832343   678A      7.853698  
     679A      7.873360   680A      7.879933   681A      7.885251  
     682A      7.918127   683A      7.931682   684A      7.976866  
     685A      7.983866   686A      8.016021   687A      8.026498  
     688A      8.058531   689A      8.062985   690A      8.066222  
     691A      8.097191   692A      8.115642   693A      8.116197  
     694A      8.124699   695A      8.126723   696A      8.149421  
     697A      8.176935   698A      8.191611   699A      8.330475  
     700A      8.348969   701A      8.372535   702A      8.377938  
     703A      8.387982   704A      8.408054   705A      8.449275  
     706A      8.464231   707A      8.481558   708A      8.501397  
     709A      8.544801   710A      8.591056   711A      8.650029  
     712A      8.659865   713A      8.671016   714A      8.716505  
     715A      8.717272   716A      8.728616   717A      8.778554  
     718A      8.806551   719A      8.861988   720A      8.887919  
     721A      8.897065   722A      8.906622   723A      8.913012  
     724A      8.966296   725A      8.967641   726A      8.988637  
     727A      8.993917   728A      9.002334   729A      9.025828  
     730A      9.084745   731A      9.098516   732A      9.124755  
     733A      9.129144   734A      9.162223   735A      9.173112  
     736A      9.241037   737A      9.241359   738A      9.242118  
     739A      9.258479   740A      9.281688   741A      9.336526  
     742A      9.360006   743A      9.386301   744A      9.408239  
     745A      9.417602   746A      9.432809   747A      9.446088  
     748A      9.482888   749A      9.498475   750A      9.532651  
     751A      9.556699   752A      9.561228   753A      9.594254  
     754A      9.600297   755A      9.625607   756A      9.676380  
     757A      9.679838   758A      9.730767   759A      9.747065  
     760A      9.763698   761A      9.799976   762A      9.834773  
     763A      9.873646   764A      9.876302   765A      9.912246  
     766A      9.925656   767A      9.975912   768A      9.999300  
     769A     10.016704   770A     10.032220   771A     10.045422  
     772A     10.057110   773A     10.067737   774A     10.105489  
     775A     10.181717   776A     10.235519   777A     10.248207  
     778A     10.255022   779A     10.271264   780A     10.332175  
     781A     10.353974   782A     10.369398   783A     10.383870  
     784A     10.386732   785A     10.391716   786A     10.428369  
     787A     10.440287   788A     10.534505   789A     10.546632  
     790A     10.567565   791A     10.576464   792A     10.613837  
     793A     10.628055   794A     10.668154   795A     10.723632  
     796A     10.773416   797A     10.791659   798A     10.813841  
     799A     10.819427   800A     10.871115   801A     10.896571  
     802A     10.934416   803A     10.946274   804A     11.194024  
     805A     11.235479   806A     11.289485   807A     11.325269  
     808A     11.373396   809A     11.439521   810A     11.446283  
     811A     11.538238   812A     11.549744   813A     11.687639  
     814A     11.689831   815A     11.736027   816A     11.782093  
     817A     11.895670   818A     12.042475   819A     12.386924  
     820A     12.560283   821A     12.733708   822A     12.825885  
     823A     13.111386   824A     13.263645   825A     13.322683  
     826A     13.411594   827A     13.427712   828A     13.599360  
     829A     13.785799   830A     26.312109   831A     26.449659  
     832A     26.706552   833A     27.059746   834A     27.336612  
     835A     31.109516   836A     31.178768   837A     31.460034  
     838A     34.612699   839A     44.243564   840A    160.587224  

    Final Occupation by Irrep:
              A 
    DOCC [    21 ]
    NA   [    21 ]
    NB   [    21 ]

  @DF-RHF Final Energy:  -246.79358160904769

   => Energetics <=

    Nuclear Repulsion Energy =            206.9828667435982368
    One-Electron Energy =                -742.7938225546981812
    Two-Electron Energy =                 289.0173742020522241
    Total Energy =                       -246.7935816090476919

Computation Completed


Properties will be evaluated at   0.000000,   0.000000,   0.000000 [a0]

Properties computed using the SCF density matrix


 Multipole Moments:

 ------------------------------------------------------------------------------------
     Multipole            Electronic (a.u.)      Nuclear  (a.u.)        Total (a.u.)
 ------------------------------------------------------------------------------------

 L = 1.  Multiply by 2.5417464519 to convert [e a0] to [Debye]
 Dipole X            :          0.0000000           -0.0000000            0.0000000
 Dipole Y            :          0.0000000           -0.0000000            0.0000000
 Dipole Z            :        108.0329468         -108.9172461           -0.8842993
 Magnitude           :                                                    0.8842993

 ------------------------------------------------------------------------------------

*** tstop() called on cmpsrv002 at Thu Sep 26 15:39:39 2024
Module time:
	user time   =     356.32 seconds =       5.94 minutes
	system time =      12.10 seconds =       0.20 minutes
	total time  =        154 seconds =       2.57 minutes
Total time:
	user time   =     842.58 seconds =      14.04 minutes
	system time =      44.69 seconds =       0.74 minutes
	total time  =        846 seconds =      14.10 minutes

*** tstart() called on cmpsrv002
*** at Thu Sep 26 15:39:39 2024


  //>>>>>>>>>>>>>>>>>>>>>>>>>>>>>>>>>>>//
  //               DFMP2               //
  //<<<<<<<<<<<<<<<<<<<<<<<<<<<<<<<<<<<//

   => Loading Basis Set <=

    Name: (THIS_BASIS AUX)
    Role: RIFIT
    Keyword: DF_BASIS_MP2
    atoms 1, 3-4, 11-13 entry H          line    30 file /home/vance/anaconda3/envs/p4env/share/psi4/basis/aug-cc-pvqz-ri.gbs 
    atoms 2             entry CL         line   914 file /home/vance/anaconda3/envs/p4env/share/psi4/basis/aug-cc-pvqz-ri.gbs 
    atoms 5-7, 9-10     entry C          line   184 file /home/vance/anaconda3/envs/p4env/share/psi4/basis/aug-cc-pvqz-ri.gbs 
    atoms 8             entry N          line   258 file /home/vance/anaconda3/envs/p4env/share/psi4/basis/aug-cc-pvqz-ri.gbs 

	 --------------------------------------------------------
	                          DF-MP2                         
	      2nd-Order Density-Fitted Moller-Plesset Theory     
	              RMP2 Wavefunction,   4 Threads             
	                                                         
	        Rob Parrish, Justin Turney, Andy Simmonett,      
	           Ed Hohenstein, and C. David Sherrill          
	 --------------------------------------------------------

   => Auxiliary Basis Set <=

  Basis Set: (THIS_BASIS AUX)
    Blend: AUG-CC-PVQZ-RI
    Number of shells: 380
    Number of basis functions: 1682
    Number of Cartesian functions: 2320
    Spherical Harmonics?: true
    Max angular momentum: 5

	 --------------------------------------------------------
	                 NBF =   840, NAUX =  1682
	 --------------------------------------------------------
	   CLASS    FOCC     OCC    AOCC    AVIR     VIR    FVIR
	   PAIRS       0      21      21     819     819       0
	 --------------------------------------------------------

	 Will attempt to load fitting metric from file 97.

	-----------------------------------------------------------
	 ==================> DF-MP2 Energies <==================== 
	-----------------------------------------------------------
	 Reference Energy          =    -246.7935816090476919 [Eh]
	 Singles Energy            =      -0.0000000000000000 [Eh]
	 Same-Spin Energy          =      -0.2842027593382879 [Eh]
	 Opposite-Spin Energy      =      -0.9423988652862147 [Eh]
	 Correlation Energy        =      -1.2266016246245026 [Eh]
	 Total Energy              =    -248.0201832336721850 [Eh]
	-----------------------------------------------------------
	 ================> DF-SCS-MP2 Energies <================== 
	-----------------------------------------------------------
	 SCS Same-Spin Scale       =       0.3333333333333333 [-]
	 SCS Opposite-Spin Scale   =       1.2000000000000000 [-]
	 SCS Same-Spin Energy      =      -0.0947342531127626 [Eh]
	 SCS Opposite-Spin Energy  =      -1.1308786383434577 [Eh]
	 SCS Correlation Energy    =      -1.2256128914562203 [Eh]
	 SCS Total Energy          =    -248.0191945005039145 [Eh]
	-----------------------------------------------------------


*** tstop() called on cmpsrv002 at Thu Sep 26 15:40:40 2024
Module time:
	user time   =      98.74 seconds =       1.65 minutes
	system time =       9.08 seconds =       0.15 minutes
	total time  =         61 seconds =       1.02 minutes
Total time:
	user time   =     941.32 seconds =      15.69 minutes
	system time =      53.77 seconds =       0.90 minutes
	total time  =        907 seconds =      15.12 minutes
  Constructing Basis Sets for SAPT...

   => Loading Basis Set <=

    Name: (THIS_BASIS AUX)
    Role: RIFIT
    Keyword: DF_BASIS_SAPT
    atoms 1, 3-4, 11-13 entry H          line    30 file /home/vance/anaconda3/envs/p4env/share/psi4/basis/aug-cc-pvqz-ri.gbs 
    atoms 2             entry CL         line   914 file /home/vance/anaconda3/envs/p4env/share/psi4/basis/aug-cc-pvqz-ri.gbs 
    atoms 5-7, 9-10     entry C          line   184 file /home/vance/anaconda3/envs/p4env/share/psi4/basis/aug-cc-pvqz-ri.gbs 
    atoms 8             entry N          line   258 file /home/vance/anaconda3/envs/p4env/share/psi4/basis/aug-cc-pvqz-ri.gbs 

   => Loading Basis Set <=

    Name: (THIS_BASIS AUX)
    Role: JKFIT
    Keyword: DF_BASIS_ELST
    atoms 1, 3-4, 11-13 entry H          line    70 file /home/vance/anaconda3/envs/p4env/share/psi4/basis/aug-cc-pvqz-jkfit.gbs 
    atoms 2             entry CL         line   904 file /home/vance/anaconda3/envs/p4env/share/psi4/basis/aug-cc-pvqz-jkfit.gbs 
    atoms 5-7, 9-10     entry C          line   178 file /home/vance/anaconda3/envs/p4env/share/psi4/basis/aug-cc-pvqz-jkfit.gbs 
    atoms 8             entry N          line   248 file /home/vance/anaconda3/envs/p4env/share/psi4/basis/aug-cc-pvqz-jkfit.gbs 


  //>>>>>>>>>>>>>>>>>>>>>>>>>>>>>>>>>>>//
  //             SAPT2+DMP2            //
  //<<<<<<<<<<<<<<<<<<<<<<<<<<<<<<<<<<<//


*** tstart() called on cmpsrv002
*** at Thu Sep 26 15:40:40 2024

        SAPT2+  
    Ed Hohenstein
     6 June 2009

      Orbital Information
  --------------------------
    NSO        =       840
    NMO        =       840
    NRI        =      1682
    NOCC A     =         9
    NOCC B     =        21
    FOCC A     =         0
    FOCC B     =         0
    NVIR A     =       831
    NVIR B     =       819

    Estimated memory usage: 16601.1 MB


Traceback (most recent call last):
  File "/home/vance/anaconda3/envs/p4env/bin/psi4", line 387, in <module>
    exec(content)
  File "<string>", line 58, in <module>
  File "/home/vance/anaconda3/envs/p4env/lib/python3.12/site-packages/psi4/driver/driver.py", line 525, in energy
    wfn = procedures['energy'][lowername](lowername, molecule=molecule, **kwargs)
          ^^^^^^^^^^^^^^^^^^^^^^^^^^^^^^^^^^^^^^^^^^^^^^^^^^^^^^^^^^^^^^^^^^^^^^^
  File "/home/vance/anaconda3/envs/p4env/lib/python3.12/site-packages/psi4/driver/procrouting/proc.py", line 4660, in run_sapt
    e_sapt = core.sapt(dimer_wfn, monomerA_wfn, monomerB_wfn)
             ^^^^^^^^^^^^^^^^^^^^^^^^^^^^^^^^^^^^^^^^^^^^^^^^

RuntimeError: 
Fatal Error: Not enough memory
Error occurred in file: /home/conda/feedstock_root/build_artifacts/psi4_1720499718168/work/psi4/src/psi4/libsapt_solver/sapt2p.cc on line: 189
The most recent 5 function calls were:

psi::PsiException::PsiException(std::__cxx11::basic_string<char, std::char_traits<char>, std::allocator<char> >, char const*, int)



Printing out the relevant lines from the Psithon --> Python processed input file:
    core.IO.set_default_namespace("")
    core.set_global_option("SCF_TYPE", "DF")
    core.set_global_option("FREEZE_CORE", "false")
    core.set_global_option("DO_IND_EXCH_SINF", "true")
    core.set_global_option("DO_DISP_EXCH_SINF", "true")
--> nrg = energy('sapt2+dmp2')

!----------------------------------------------------------------------------------!
!                                                                                  !
! Fatal Error: Not enough memory                                                   !
! Error occurred in file: /home/conda/feedstock_root/build_artifacts/psi4_17204997 !
!     18168/work/psi4/src/psi4/libsapt_solver/sapt2p.cc on line: 189               !
! The most recent 5 function calls were:                                           !
! psi::PsiException::PsiException(std::__cxx11::basic_string<char,                 !
!     std::char_traits<char>, std::allocator<char> >, char const*, int)            !
!                                                                                  !
!----------------------------------------------------------------------------------!

    Psi4 stopped on: Thursday, 26 September 2024 03:40PM
    Psi4 wall time for execution: 0:15:08.26

*** Psi4 encountered an error. Buy a developer more coffee!
*** Resources and help at github.com/psi4/psi4.
