
    -----------------------------------------------------------------------
          Psi4: An Open-Source Ab Initio Electronic Structure Package
                               Psi4 1.9.1 release

                         Git: Rev {} zzzzzzz 


    D. G. A. Smith, L. A. Burns, A. C. Simmonett, R. M. Parrish,
    M. C. Schieber, R. Galvelis, P. Kraus, H. Kruse, R. Di Remigio,
    A. Alenaizan, A. M. James, S. Lehtola, J. P. Misiewicz, M. Scheurer,
    R. A. Shaw, J. B. Schriber, Y. Xie, Z. L. Glick, D. A. Sirianni,
    J. S. O'Brien, J. M. Waldrop, A. Kumar, E. G. Hohenstein,
    B. P. Pritchard, B. R. Brooks, H. F. Schaefer III, A. Yu. Sokolov,
    K. Patkowski, A. E. DePrince III, U. Bozkaya, R. A. King,
    F. A. Evangelista, J. M. Turney, T. D. Crawford, C. D. Sherrill,
    J. Chem. Phys. 152(18) 184108 (2020). https://doi.org/10.1063/5.0006002

                            Additional Code Authors
    E. T. Seidl, C. L. Janssen, E. F. Valeev, M. L. Leininger,
    J. F. Gonthier, R. M. Richard, H. R. McAlexander, M. Saitow, X. Wang,
    P. Verma, M. H. Lechner, A. Jiang, S. Behnle, A. G. Heide,
    M. F. Herbst, and D. L. Poole

             Previous Authors, Complete List of Code Contributors,
                       and Citations for Specific Modules
    https://github.com/psi4/psi4/blob/master/codemeta.json
    https://github.com/psi4/psi4/graphs/contributors
    http://psicode.org/psi4manual/master/introduction.html#citing-psifour

    -----------------------------------------------------------------------


    Psi4 started on: Thursday, 26 September 2024 03:25PM

    Process ID: 636581
    Host:       cmpsrv002
    PSIDATADIR: /home/vance/anaconda3/envs/p4env/share/psi4
    Memory:     500.0 MiB
    Threads:    8
    
  ==> Input File <==

--------------------------------------------------------------------------
#charge=0 charge_a=0 charge_b=0 selection_a=1-2 selection_b=3-13 scaling=0.85 benchmark_Eint=-9.362 benchmark_unit=kcal/mol group=XH-N
set_num_threads(4)
memory 8 GB
basis this_basis {
    assign    aug-cc-pVQZ
}

molecule {
     0 1
    --
     0 1
     H        0.00000        0.00000        1.62588
    Cl        0.00000        0.00000        2.99334
    --
     0 1
     H        0.00000       -2.14771       -2.30799
     H        0.00000       -2.05142        0.18554
     C        0.00000        0.00000       -2.50179
     C        0.00000       -1.19640       -1.79768
     C        0.00000       -1.14931       -0.41174
     N        0.00000        0.00000        0.26125
     C       -0.00000        1.14931       -0.41174
     C       -0.00000        1.19640       -1.79768
     H       -0.00000        2.05142        0.18554
     H       -0.00000        2.14771       -2.30799
     H        0.00000        0.00000       -3.58237
}

set {
    scf_type                DF
    freeze_core             false
    do_ind_exch_sinf        true
    do_disp_exch_sinf       true
}

nrg = energy('sapt2+dmp2')
--------------------------------------------------------------------------
  Threads set to 4 by Python driver.

  Memory set to   7.451 GiB by Python driver.

Scratch directory: /scratch2/vance/psi4/
  SAPT does not make use of molecular symmetry, further calculations in C1 point group.
   => Loading Basis Set <=

    Name: THIS_BASIS
    Role: ORBITAL
    Keyword: BASIS
    atoms 1, 3-4, 11-13 entry H          line    40 file /home/vance/anaconda3/envs/p4env/share/psi4/basis/aug-cc-pvqz.gbs 
    atoms 2             entry CL         line  1222 file /home/vance/anaconda3/envs/p4env/share/psi4/basis/aug-cc-pvqz.gbs 
    atoms 5-7, 9-10     entry C          line   303 file /home/vance/anaconda3/envs/p4env/share/psi4/basis/aug-cc-pvqz.gbs 
    atoms 8             entry N          line   363 file /home/vance/anaconda3/envs/p4env/share/psi4/basis/aug-cc-pvqz.gbs 

   => Loading Basis Set <=

    Name: THIS_BASIS
    Role: ORBITAL
    Keyword: BASIS
    atoms 1, 3-4, 11-13 entry H          line    40 file /home/vance/anaconda3/envs/p4env/share/psi4/basis/aug-cc-pvqz.gbs 
    atoms 2             entry CL         line  1222 file /home/vance/anaconda3/envs/p4env/share/psi4/basis/aug-cc-pvqz.gbs 
    atoms 5-7, 9-10     entry C          line   303 file /home/vance/anaconda3/envs/p4env/share/psi4/basis/aug-cc-pvqz.gbs 
    atoms 8             entry N          line   363 file /home/vance/anaconda3/envs/p4env/share/psi4/basis/aug-cc-pvqz.gbs 


  //>>>>>>>>>>>>>>>>>>>>>>>>>>>>>>>>>>>//
  //              Dimer HF             //
  //<<<<<<<<<<<<<<<<<<<<<<<<<<<<<<<<<<<//

   => Libint2 <=

    Primary   basis highest AM E, G, H:  6, 6, 3
    Auxiliary basis highest AM E, G, H:  7, 7, 4
    Onebody   basis highest AM E, G, H:  -, -, -
    Solid Harmonics ordering:            Gaussian

*** tstart() called on cmpsrv002
*** at Thu Sep 26 15:25:33 2024

   => Loading Basis Set <=

    Name: THIS_BASIS
    Role: ORBITAL
    Keyword: BASIS
    atoms 1, 3-4, 11-13 entry H          line    40 file /home/vance/anaconda3/envs/p4env/share/psi4/basis/aug-cc-pvqz.gbs 
    atoms 2             entry CL         line  1222 file /home/vance/anaconda3/envs/p4env/share/psi4/basis/aug-cc-pvqz.gbs 
    atoms 5-7, 9-10     entry C          line   303 file /home/vance/anaconda3/envs/p4env/share/psi4/basis/aug-cc-pvqz.gbs 
    atoms 8             entry N          line   363 file /home/vance/anaconda3/envs/p4env/share/psi4/basis/aug-cc-pvqz.gbs 


         ---------------------------------------------------------
                                   SCF
               by Justin Turney, Rob Parrish, Andy Simmonett
                          and Daniel G. A. Smith
                              RHF Reference
                        4 Threads,   7629 MiB Core
         ---------------------------------------------------------

  ==> Geometry <==

    Molecular point group: c1
    Full point group: C2v

    Geometry (in Angstrom), charge = 0, multiplicity = 1:

       Center              X                  Y                   Z               Mass       
    ------------   -----------------  -----------------  -----------------  -----------------
         H            0.000000000000     0.000000000000     1.460389838641     1.007825032230
         CL           0.000000000000     0.000000000000     2.827849838641    34.968852682000
         H            0.000000000000    -2.147710000000    -2.473480161359     1.007825032230
         H            0.000000000000    -2.051420000000     0.020049838641     1.007825032230
         C            0.000000000000     0.000000000000    -2.667280161359    12.000000000000
         C            0.000000000000    -1.196400000000    -1.963170161359    12.000000000000
         C            0.000000000000    -1.149310000000    -0.577230161359    12.000000000000
         N            0.000000000000     0.000000000000     0.095759838641    14.003074004430
         C           -0.000000000000     1.149310000000    -0.577230161359    12.000000000000
         C           -0.000000000000     1.196400000000    -1.963170161359    12.000000000000
         H           -0.000000000000     2.051420000000     0.020049838641     1.007825032230
         H           -0.000000000000     2.147710000000    -2.473480161359     1.007825032230
         H            0.000000000000     0.000000000000    -3.747860161359     1.007825032230

  Running in c1 symmetry.

  Rotational constants: A =      0.20108  B =      0.03411  C =      0.02916 [cm^-1]
  Rotational constants: A =   6028.26605  B =   1022.47606  C =    874.19985 [MHz]
  Nuclear repulsion =  316.729079834216179

  Charge       = 0
  Multiplicity = 1
  Electrons    = 60
  Nalpha       = 30
  Nbeta        = 30

  ==> Algorithm <==

  SCF Algorithm Type is DF.
  DIIS enabled.
  MOM disabled.
  Fractional occupation disabled.
  Guess Type is SAD.
  Energy threshold   = 1.00e-08
  Density threshold  = 1.00e-08
  Integral threshold = 1.00e-12

  ==> Primary Basis <==

  Basis Set: THIS_BASIS
    Blend: AUG-CC-PVQZ
    Number of shells: 226
    Number of basis functions: 840
    Number of Cartesian functions: 1069
    Spherical Harmonics?: true
    Max angular momentum: 4

   => Loading Basis Set <=

    Name: (THIS_BASIS AUX)
    Role: JKFIT
    Keyword: DF_BASIS_SCF
    atoms 1, 3-4, 11-13 entry H          line    70 file /home/vance/anaconda3/envs/p4env/share/psi4/basis/aug-cc-pvqz-jkfit.gbs 
    atoms 2             entry CL         line   904 file /home/vance/anaconda3/envs/p4env/share/psi4/basis/aug-cc-pvqz-jkfit.gbs 
    atoms 5-7, 9-10     entry C          line   178 file /home/vance/anaconda3/envs/p4env/share/psi4/basis/aug-cc-pvqz-jkfit.gbs 
    atoms 8             entry N          line   248 file /home/vance/anaconda3/envs/p4env/share/psi4/basis/aug-cc-pvqz-jkfit.gbs 

  ==> Integral Setup <==

  ==> DiskDFJK: Density-Fitted J/K Matrices <==

    J tasked:                  Yes
    K tasked:                  Yes
    wK tasked:                  No
    OpenMP threads:              4
    Integrals threads:           4
    Memory [MiB]:             5722
    Algorithm:                Core
    Integral Cache:           SAVE
    Schwarz Cutoff:          1E-12
    Fitting Condition:       1E-10

   => Auxiliary Basis Set <=

  Basis Set: (THIS_BASIS AUX)
    Blend: AUG-CC-PVQZ-JKFIT
    Number of shells: 358
    Number of basis functions: 1492
    Number of Cartesian functions: 2041
    Spherical Harmonics?: true
    Max angular momentum: 5

  Minimum eigenvalue in the overlap matrix is 4.6950513759E-07.
  Reciprocal condition number of the overlap matrix is 2.5142748874E-08.
    Using symmetric orthogonalization.

  ==> Pre-Iterations <==

  SCF Guess: Superposition of Atomic Densities via on-the-fly atomic UHF (no occupation information).

   -------------------------
    Irrep   Nso     Nmo    
   -------------------------
     A        840     840 
   -------------------------
    Total     840     840
   -------------------------

  ==> Iterations <==

                           Total Energy        Delta E     RMS |[F,P]|

   @DF-RHF iter SAD:  -706.45337183096353   -7.06453e+02   0.00000e+00 
   @DF-RHF iter   1:  -706.75767895899378   -3.04307e-01   5.96648e-04 DIIS/ADIIS
   @DF-RHF iter   2:  -706.88258831808207   -1.24909e-01   2.44565e-04 DIIS/ADIIS
   @DF-RHF iter   3:  -706.90210766020186   -1.95193e-02   5.36328e-05 DIIS
   @DF-RHF iter   4:  -706.90356530264580   -1.45764e-03   1.38947e-05 DIIS
   @DF-RHF iter   5:  -706.90364655498990   -8.12523e-05   4.36991e-06 DIIS
   @DF-RHF iter   6:  -706.90365610364722   -9.54866e-06   1.73215e-06 DIIS
   @DF-RHF iter   7:  -706.90365790456838   -1.80092e-06   5.71285e-07 DIIS
   @DF-RHF iter   8:  -706.90365821649834   -3.11930e-07   2.21829e-07 DIIS
   @DF-RHF iter   9:  -706.90365827066614   -5.41678e-08   8.69558e-08 DIIS
   @DF-RHF iter  10:  -706.90365828119343   -1.05273e-08   3.63522e-08 DIIS
   @DF-RHF iter  11:  -706.90365828366112   -2.46769e-09   1.35766e-08 DIIS
   @DF-RHF iter  12:  -706.90365828406448   -4.03361e-10   3.94368e-09 DIIS
  Energy and wave function converged.


  ==> Post-Iterations <==

    Orbital Energies [Eh]
    ---------------------

    Doubly Occupied:                                                      

       1A   -104.748194     2A    -15.613093     3A    -11.312770  
       4A    -11.312750     5A    -11.291985     6A    -11.271433  
       7A    -11.271384     8A    -10.476718     9A     -7.943648  
      10A     -7.942570    11A     -7.942557    12A     -1.312609  
      13A     -1.129383    14A     -1.073785    15A     -1.028387  
      16A     -0.898437    17A     -0.896623    18A     -0.768836  
      19A     -0.702628    20A     -0.689468    21A     -0.655674  
      22A     -0.636085    23A     -0.588657    24A     -0.559944  
      25A     -0.557133    26A     -0.428601    27A     -0.409774  
      28A     -0.398925    29A     -0.395558    30A     -0.382394  

    Virtual:                                                              

      31A      0.013488    32A      0.022389    33A      0.030022  
      34A      0.043244    35A      0.047123    36A      0.050452  
      37A      0.058253    38A      0.072001    39A      0.073584  
      40A      0.078677    41A      0.082873    42A      0.087962  
      43A      0.088953    44A      0.090043    45A      0.090681  
      46A      0.102919    47A      0.111463    48A      0.113328  
      49A      0.115029    50A      0.120759    51A      0.123159  
      52A      0.126943    53A      0.127988    54A      0.131876  
      55A      0.143211    56A      0.150235    57A      0.162937  
      58A      0.183733    59A      0.193370    60A      0.198989  
      61A      0.201277    62A      0.203887    63A      0.210294  
      64A      0.215602    65A      0.228141    66A      0.235155  
      67A      0.236235    68A      0.240607    69A      0.243210  
      70A      0.243610    71A      0.249208    72A      0.259725  
      73A      0.262812    74A      0.267459    75A      0.271108  
      76A      0.275100    77A      0.276812    78A      0.283055  
      79A      0.283765    80A      0.287703    81A      0.300758  
      82A      0.301432    83A      0.302317    84A      0.305385  
      85A      0.319319    86A      0.336977    87A      0.337002  
      88A      0.341501    89A      0.349964    90A      0.352907  
      91A      0.354651    92A      0.360995    93A      0.366098  
      94A      0.367383    95A      0.376146    96A      0.385750  
      97A      0.386349    98A      0.393306    99A      0.407239  
     100A      0.409767   101A      0.411225   102A      0.420012  
     103A      0.422911   104A      0.423792   105A      0.428972  
     106A      0.435124   107A      0.436665   108A      0.442569  
     109A      0.446600   110A      0.452272   111A      0.455129  
     112A      0.456699   113A      0.462327   114A      0.468505  
     115A      0.476398   116A      0.481640   117A      0.485796  
     118A      0.492069   119A      0.501500   120A      0.501868  
     121A      0.502595   122A      0.506543   123A      0.512287  
     124A      0.531162   125A      0.548250   126A      0.551354  
     127A      0.557861   128A      0.564010   129A      0.570944  
     130A      0.574547   131A      0.582228   132A      0.586315  
     133A      0.592644   134A      0.603526   135A      0.606576  
     136A      0.616565   137A      0.620391   138A      0.639621  
     139A      0.641176   140A      0.649208   141A      0.656055  
     142A      0.665497   143A      0.669292   144A      0.675102  
     145A      0.684037   146A      0.686923   147A      0.697707  
     148A      0.700017   149A      0.702059   150A      0.718157  
     151A      0.725571   152A      0.726725   153A      0.737222  
     154A      0.740781   155A      0.745214   156A      0.745362  
     157A      0.762150   158A      0.765247   159A      0.766452  
     160A      0.770965   161A      0.771951   162A      0.778627  
     163A      0.786891   164A      0.792720   165A      0.798842  
     166A      0.812589   167A      0.812610   168A      0.814504  
     169A      0.825761   170A      0.832102   171A      0.834697  
     172A      0.834871   173A      0.843549   174A      0.864829  
     175A      0.878915   176A      0.887351   177A      0.889667  
     178A      0.891741   179A      0.892822   180A      0.894007  
     181A      0.910076   182A      0.914270   183A      0.924492  
     184A      0.929066   185A      0.929842   186A      0.934639  
     187A      0.939042   188A      0.947708   189A      0.954440  
     190A      0.954522   191A      0.962117   192A      0.964725  
     193A      0.980185   194A      0.983198   195A      1.000759  
     196A      1.013730   197A      1.014407   198A      1.025504  
     199A      1.030252   200A      1.040161   201A      1.052000  
     202A      1.056966   203A      1.067257   204A      1.073588  
     205A      1.078893   206A      1.088680   207A      1.088973  
     208A      1.096287   209A      1.113372   210A      1.128820  
     211A      1.135402   212A      1.136870   213A      1.145711  
     214A      1.146385   215A      1.154701   216A      1.160158  
     217A      1.166260   218A      1.178873   219A      1.193611  
     220A      1.194253   221A      1.202400   222A      1.204495  
     223A      1.219429   224A      1.228622   225A      1.240205  
     226A      1.257510   227A      1.260572   228A      1.261139  
     229A      1.274175   230A      1.280188   231A      1.295024  
     232A      1.299321   233A      1.300451   234A      1.318694  
     235A      1.334363   236A      1.342131   237A      1.344852  
     238A      1.357674   239A      1.365315   240A      1.372489  
     241A      1.375843   242A      1.379483   243A      1.382861  
     244A      1.398598   245A      1.412495   246A      1.419967  
     247A      1.429118   248A      1.430236   249A      1.432080  
     250A      1.456160   251A      1.490221   252A      1.497796  
     253A      1.510542   254A      1.514549   255A      1.520694  
     256A      1.522181   257A      1.528943   258A      1.539422  
     259A      1.547642   260A      1.555427   261A      1.561595  
     262A      1.564678   263A      1.575224   264A      1.580373  
     265A      1.588196   266A      1.603058   267A      1.613388  
     268A      1.626739   269A      1.629976   270A      1.644299  
     271A      1.669264   272A      1.676218   273A      1.680327  
     274A      1.700396   275A      1.715608   276A      1.716192  
     277A      1.734669   278A      1.739967   279A      1.746458  
     280A      1.752912   281A      1.770598   282A      1.770957  
     283A      1.777834   284A      1.809366   285A      1.824203  
     286A      1.825726   287A      1.826734   288A      1.827082  
     289A      1.851014   290A      1.857482   291A      1.857798  
     292A      1.879900   293A      1.885472   294A      1.898266  
     295A      1.898394   296A      1.901978   297A      1.910441  
     298A      1.928551   299A      1.930289   300A      1.932378  
     301A      1.938388   302A      1.951850   303A      1.956949  
     304A      1.962466   305A      1.965526   306A      1.976456  
     307A      1.981861   308A      1.989700   309A      1.991384  
     310A      2.006205   311A      2.010589   312A      2.010848  
     313A      2.022444   314A      2.026532   315A      2.029525  
     316A      2.042909   317A      2.052387   318A      2.059055  
     319A      2.059860   320A      2.067305   321A      2.077325  
     322A      2.080419   323A      2.087661   324A      2.103650  
     325A      2.115282   326A      2.117424   327A      2.142752  
     328A      2.147243   329A      2.151535   330A      2.159004  
     331A      2.176868   332A      2.190207   333A      2.202603  
     334A      2.204735   335A      2.218236   336A      2.223741  
     337A      2.228043   338A      2.233996   339A      2.234585  
     340A      2.240098   341A      2.249563   342A      2.269323  
     343A      2.270080   344A      2.271625   345A      2.272390  
     346A      2.276229   347A      2.293587   348A      2.295773  
     349A      2.299569   350A      2.324440   351A      2.332673  
     352A      2.339518   353A      2.339962   354A      2.357651  
     355A      2.361476   356A      2.368404   357A      2.387094  
     358A      2.390217   359A      2.390917   360A      2.391468  
     361A      2.392177   362A      2.403143   363A      2.405496  
     364A      2.409959   365A      2.419305   366A      2.425952  
     367A      2.449894   368A      2.464488   369A      2.473986  
     370A      2.479217   371A      2.485444   372A      2.507889  
     373A      2.509652   374A      2.519698   375A      2.521712  
     376A      2.529994   377A      2.536511   378A      2.536734  
     379A      2.546924   380A      2.552344   381A      2.559231  
     382A      2.568398   383A      2.570503   384A      2.584761  
     385A      2.590946   386A      2.598169   387A      2.613559  
     388A      2.620621   389A      2.623669   390A      2.646519  
     391A      2.672395   392A      2.676601   393A      2.679601  
     394A      2.679975   395A      2.717699   396A      2.726576  
     397A      2.731678   398A      2.735064   399A      2.747244  
     400A      2.754976   401A      2.784044   402A      2.788587  
     403A      2.805989   404A      2.815196   405A      2.829137  
     406A      2.835435   407A      2.849245   408A      2.852401  
     409A      2.859179   410A      2.866341   411A      2.875528  
     412A      2.923937   413A      2.926969   414A      2.939717  
     415A      2.952672   416A      2.980803   417A      2.984058  
     418A      2.995809   419A      3.004504   420A      3.023140  
     421A      3.043457   422A      3.048060   423A      3.058502  
     424A      3.063728   425A      3.088960   426A      3.102387  
     427A      3.117279   428A      3.129534   429A      3.136932  
     430A      3.136967   431A      3.138053   432A      3.163375  
     433A      3.176131   434A      3.185257   435A      3.188568  
     436A      3.194952   437A      3.258259   438A      3.264141  
     439A      3.266127   440A      3.284579   441A      3.291025  
     442A      3.294310   443A      3.308674   444A      3.314239  
     445A      3.322315   446A      3.332693   447A      3.351504  
     448A      3.369883   449A      3.386954   450A      3.403292  
     451A      3.421131   452A      3.429504   453A      3.447366  
     454A      3.453659   455A      3.471634   456A      3.489230  
     457A      3.510579   458A      3.517404   459A      3.539059  
     460A      3.558557   461A      3.561405   462A      3.576851  
     463A      3.586883   464A      3.628987   465A      3.638842  
     466A      3.658342   467A      3.664557   468A      3.669752  
     469A      3.711230   470A      3.728932   471A      3.734215  
     472A      3.750449   473A      3.782748   474A      3.793786  
     475A      3.799047   476A      3.801143   477A      3.813795  
     478A      3.833870   479A      3.842329   480A      3.866221  
     481A      3.899382   482A      3.900542   483A      3.902124  
     484A      3.903298   485A      3.927577   486A      3.966656  
     487A      3.970457   488A      3.970802   489A      3.979536  
     490A      3.989920   491A      4.016724   492A      4.039139  
     493A      4.044767   494A      4.059095   495A      4.060742  
     496A      4.080335   497A      4.088203   498A      4.097000  
     499A      4.114569   500A      4.179661   501A      4.184267  
     502A      4.200281   503A      4.208425   504A      4.238293  
     505A      4.243692   506A      4.247961   507A      4.288841  
     508A      4.305710   509A      4.319385   510A      4.327809  
     511A      4.346424   512A      4.357585   513A      4.376057  
     514A      4.381894   515A      4.390222   516A      4.410292  
     517A      4.437299   518A      4.466423   519A      4.481465  
     520A      4.485909   521A      4.505987   522A      4.525321  
     523A      4.541355   524A      4.547748   525A      4.565387  
     526A      4.576594   527A      4.583252   528A      4.609890  
     529A      4.611512   530A      4.621689   531A      4.651394  
     532A      4.653254   533A      4.685882   534A      4.691366  
     535A      4.712342   536A      4.741147   537A      4.794099  
     538A      4.795616   539A      4.805703   540A      4.821023  
     541A      4.821854   542A      4.822796   543A      4.823641  
     544A      4.855856   545A      4.862233   546A      4.869804  
     547A      4.879294   548A      4.898290   549A      4.910504  
     550A      4.911462   551A      4.922232   552A      4.932984  
     553A      4.961287   554A      4.998740   555A      5.016917  
     556A      5.020707   557A      5.038561   558A      5.058350  
     559A      5.058557   560A      5.101092   561A      5.104892  
     562A      5.111588   563A      5.147993   564A      5.227164  
     565A      5.232354   566A      5.242131   567A      5.253877  
     568A      5.255525   569A      5.297645   570A      5.350551  
     571A      5.376269   572A      5.408657   573A      5.416643  
     574A      5.428001   575A      5.429477   576A      5.464235  
     577A      5.489570   578A      5.558003   579A      5.574660  
     580A      5.617232   581A      5.627297   582A      5.740445  
     583A      5.816608   584A      5.828390   585A      5.837026  
     586A      5.854180   587A      5.883195   588A      5.904939  
     589A      5.933503   590A      5.937995   591A      5.980756  
     592A      5.995181   593A      6.041909   594A      6.061269  
     595A      6.081643   596A      6.083944   597A      6.106953  
     598A      6.148305   599A      6.153750   600A      6.173193  
     601A      6.193880   602A      6.262242   603A      6.268200  
     604A      6.298837   605A      6.318695   606A      6.329311  
     607A      6.332334   608A      6.359319   609A      6.386178  
     610A      6.428601   611A      6.486057   612A      6.500457  
     613A      6.512338   614A      6.514296   615A      6.551432  
     616A      6.555234   617A      6.577530   618A      6.581496  
     619A      6.617040   620A      6.633255   621A      6.652673  
     622A      6.657154   623A      6.664001   624A      6.692200  
     625A      6.705595   626A      6.717526   627A      6.724999  
     628A      6.734922   629A      6.741931   630A      6.754556  
     631A      6.770536   632A      6.800106   633A      6.836442  
     634A      6.859726   635A      6.865094   636A      6.877231  
     637A      6.889085   638A      6.892760   639A      6.933637  
     640A      6.937622   641A      6.956461   642A      6.973055  
     643A      6.990093   644A      7.003243   645A      7.018428  
     646A      7.028148   647A      7.038760   648A      7.055872  
     649A      7.066890   650A      7.074923   651A      7.081898  
     652A      7.129473   653A      7.148010   654A      7.173740  
     655A      7.174100   656A      7.176158   657A      7.204040  
     658A      7.216630   659A      7.251467   660A      7.252918  
     661A      7.281826   662A      7.282156   663A      7.304816  
     664A      7.320066   665A      7.323923   666A      7.378323  
     667A      7.378739   668A      7.387439   669A      7.411543  
     670A      7.425891   671A      7.431022   672A      7.470715  
     673A      7.496373   674A      7.503774   675A      7.548586  
     676A      7.560303   677A      7.561997   678A      7.579793  
     679A      7.592248   680A      7.649682   681A      7.677670  
     682A      7.687620   683A      7.721278   684A      7.753171  
     685A      7.782053   686A      7.805025   687A      7.844636  
     688A      7.848646   689A      7.862172   690A      7.877124  
     691A      7.899000   692A      7.900141   693A      7.936230  
     694A      8.011465   695A      8.014744   696A      8.019367  
     697A      8.024089   698A      8.026739   699A      8.084869  
     700A      8.097193   701A      8.106745   702A      8.113944  
     703A      8.123798   704A      8.138073   705A      8.148389  
     706A      8.210621   707A      8.307996   708A      8.319818  
     709A      8.354734   710A      8.379327   711A      8.395792  
     712A      8.411511   713A      8.427668   714A      8.432435  
     715A      8.515455   716A      8.564725   717A      8.615045  
     718A      8.623396   719A      8.628325   720A      8.634981  
     721A      8.679823   722A      8.692226   723A      8.739027  
     724A      8.769284   725A      8.777898   726A      8.836750  
     727A      8.861354   728A      8.879344   729A      8.900878  
     730A      8.901910   731A      8.917892   732A      8.937529  
     733A      8.940261   734A      8.969957   735A      8.974416  
     736A      9.037000   737A      9.040457   738A      9.046485  
     739A      9.072926   740A      9.083408   741A      9.118124  
     742A      9.134795   743A      9.137927   744A      9.178603  
     745A      9.221356   746A      9.258215   747A      9.279588  
     748A      9.297949   749A      9.322878   750A      9.329095  
     751A      9.338105   752A      9.360031   753A      9.406818  
     754A      9.431105   755A      9.466221   756A      9.470381  
     757A      9.528510   758A      9.529227   759A      9.553194  
     760A      9.569365   761A      9.600043   762A      9.628804  
     763A      9.629882   764A      9.639392   765A      9.701970  
     766A      9.711889   767A      9.731561   768A      9.777936  
     769A      9.839204   770A      9.858380   771A      9.861508  
     772A      9.907091   773A      9.918918   774A      9.921293  
     775A      9.969557   776A     10.001112   777A     10.006580  
     778A     10.007461   779A     10.034094   780A     10.066094  
     781A     10.123213   782A     10.164089   783A     10.212511  
     784A     10.223384   785A     10.270367   786A     10.324292  
     787A     10.339934   788A     10.348258   789A     10.362632  
     790A     10.399990   791A     10.432728   792A     10.500098  
     793A     10.500254   794A     10.531208   795A     10.536840  
     796A     10.545527   797A     10.586908   798A     10.600006  
     799A     10.617104   800A     10.630312   801A     10.715991  
     802A     10.733191   803A     10.749997   804A     10.787328  
     805A     10.796872   806A     10.850949   807A     10.902152  
     808A     10.911564   809A     10.983368   810A     11.199460  
     811A     11.218532   812A     11.289017   813A     11.393605  
     814A     11.419312   815A     11.490803   816A     11.515200  
     817A     11.616351   818A     11.648206   819A     11.701196  
     820A     11.719114   821A     11.784736   822A     11.965779  
     823A     12.348073   824A     12.534871   825A     12.559966  
     826A     12.809415   827A     13.027728   828A     13.226693  
     829A     13.279894   830A     13.403860   831A     13.510552  
     832A     13.617757   833A     13.778007   834A     26.332247  
     835A     26.437688   836A     26.757727   837A     27.044528  
     838A     27.328294   839A     27.816694   840A     34.885205  

    Final Occupation by Irrep:
              A 
    DOCC [    30 ]
    NA   [    30 ]
    NB   [    30 ]

  @DF-RHF Final Energy:  -706.90365828406448

   => Energetics <=

    Nuclear Repulsion Energy =            316.7290798342161793
    One-Electron Energy =               -1597.9854722338820920
    Two-Electron Energy =                 574.3527341156013790
    Total Energy =                       -706.9036582840644769

Computation Completed


Properties will be evaluated at   0.000000,   0.000000,   0.000000 [a0]

Properties computed using the SCF density matrix


 Multipole Moments:

 ------------------------------------------------------------------------------------
     Multipole            Electronic (a.u.)      Nuclear  (a.u.)        Total (a.u.)
 ------------------------------------------------------------------------------------

 L = 1.  Multiply by 2.5417464519 to convert [e a0] to [Debye]
 Dipole X            :          0.0000000           -0.0000000            0.0000000
 Dipole Y            :         -0.0000000           -0.0000000           -0.0000000
 Dipole Z            :          6.3413613           -9.3334512           -2.9920899
 Magnitude           :                                                    2.9920899

 ------------------------------------------------------------------------------------

*** tstop() called on cmpsrv002 at Thu Sep 26 15:28:45 2024
Module time:
	user time   =     311.42 seconds =       5.19 minutes
	system time =      21.72 seconds =       0.36 minutes
	total time  =        192 seconds =       3.20 minutes
Total time:
	user time   =     311.42 seconds =       5.19 minutes
	system time =      21.72 seconds =       0.36 minutes
	total time  =        192 seconds =       3.20 minutes

*** tstart() called on cmpsrv002
*** at Thu Sep 26 15:28:45 2024


  //>>>>>>>>>>>>>>>>>>>>>>>>>>>>>>>>>>>//
  //               DFMP2               //
  //<<<<<<<<<<<<<<<<<<<<<<<<<<<<<<<<<<<//

   => Loading Basis Set <=

    Name: (THIS_BASIS AUX)
    Role: RIFIT
    Keyword: DF_BASIS_MP2
    atoms 1, 3-4, 11-13 entry H          line    30 file /home/vance/anaconda3/envs/p4env/share/psi4/basis/aug-cc-pvqz-ri.gbs 
    atoms 2             entry CL         line   914 file /home/vance/anaconda3/envs/p4env/share/psi4/basis/aug-cc-pvqz-ri.gbs 
    atoms 5-7, 9-10     entry C          line   184 file /home/vance/anaconda3/envs/p4env/share/psi4/basis/aug-cc-pvqz-ri.gbs 
    atoms 8             entry N          line   258 file /home/vance/anaconda3/envs/p4env/share/psi4/basis/aug-cc-pvqz-ri.gbs 

	 --------------------------------------------------------
	                          DF-MP2                         
	      2nd-Order Density-Fitted Moller-Plesset Theory     
	              RMP2 Wavefunction,   4 Threads             
	                                                         
	        Rob Parrish, Justin Turney, Andy Simmonett,      
	           Ed Hohenstein, and C. David Sherrill          
	 --------------------------------------------------------

   => Auxiliary Basis Set <=

  Basis Set: (THIS_BASIS AUX)
    Blend: AUG-CC-PVQZ-RI
    Number of shells: 380
    Number of basis functions: 1682
    Number of Cartesian functions: 2320
    Spherical Harmonics?: true
    Max angular momentum: 5

	 --------------------------------------------------------
	                 NBF =   840, NAUX =  1682
	 --------------------------------------------------------
	   CLASS    FOCC     OCC    AOCC    AVIR     VIR    FVIR
	   PAIRS       0      30      30     810     810       0
	 --------------------------------------------------------

	 Will save fitting metric to file 97.

	-----------------------------------------------------------
	 ==================> DF-MP2 Energies <==================== 
	-----------------------------------------------------------
	 Reference Energy          =    -706.9036582840644769 [Eh]
	 Singles Energy            =      -0.0000000000000000 [Eh]
	 Same-Spin Energy          =      -0.3620724197452992 [Eh]
	 Opposite-Spin Energy      =      -1.1698747008204891 [Eh]
	 Correlation Energy        =      -1.5319471205657882 [Eh]
	 Total Energy              =    -708.4356054046302233 [Eh]
	-----------------------------------------------------------
	 ================> DF-SCS-MP2 Energies <================== 
	-----------------------------------------------------------
	 SCS Same-Spin Scale       =       0.3333333333333333 [-]
	 SCS Opposite-Spin Scale   =       1.2000000000000000 [-]
	 SCS Same-Spin Energy      =      -0.1206908065817664 [Eh]
	 SCS Opposite-Spin Energy  =      -1.4038496409845869 [Eh]
	 SCS Correlation Energy    =      -1.5245404475663533 [Eh]
	 SCS Total Energy          =    -708.4281987316308005 [Eh]
	-----------------------------------------------------------


*** tstop() called on cmpsrv002 at Thu Sep 26 15:31:06 2024
Module time:
	user time   =      67.78 seconds =       1.13 minutes
	system time =       4.80 seconds =       0.08 minutes
	total time  =        141 seconds =       2.35 minutes
Total time:
	user time   =     379.21 seconds =       6.32 minutes
	system time =      26.52 seconds =       0.44 minutes
	total time  =        333 seconds =       5.55 minutes

  //>>>>>>>>>>>>>>>>>>>>>>>>>>>>>>>>>>>//
  //            Monomer A HF           //
  //<<<<<<<<<<<<<<<<<<<<<<<<<<<<<<<<<<<//

   => Libint2 <=

    Primary   basis highest AM E, G, H:  6, 6, 3
    Auxiliary basis highest AM E, G, H:  7, 7, 4
    Onebody   basis highest AM E, G, H:  -, -, -
    Solid Harmonics ordering:            Gaussian

*** tstart() called on cmpsrv002
*** at Thu Sep 26 15:31:06 2024

   => Loading Basis Set <=

    Name: THIS_BASIS
    Role: ORBITAL
    Keyword: BASIS
    atoms 1, 3-4, 11-13 entry H          line    40 file /home/vance/anaconda3/envs/p4env/share/psi4/basis/aug-cc-pvqz.gbs 
    atoms 2             entry CL         line  1222 file /home/vance/anaconda3/envs/p4env/share/psi4/basis/aug-cc-pvqz.gbs 
    atoms 5-7, 9-10     entry C          line   303 file /home/vance/anaconda3/envs/p4env/share/psi4/basis/aug-cc-pvqz.gbs 
    atoms 8             entry N          line   363 file /home/vance/anaconda3/envs/p4env/share/psi4/basis/aug-cc-pvqz.gbs 


         ---------------------------------------------------------
                                   SCF
               by Justin Turney, Rob Parrish, Andy Simmonett
                          and Daniel G. A. Smith
                              RHF Reference
                        4 Threads,   7629 MiB Core
         ---------------------------------------------------------

  ==> Geometry <==

    Molecular point group: c1
    Full point group: C2v

    Geometry (in Angstrom), charge = 0, multiplicity = 1:

       Center              X                  Y                   Z               Mass       
    ------------   -----------------  -----------------  -----------------  -----------------
         H            0.000000000000     0.000000000000     1.460389838641     1.007825032230
         CL           0.000000000000     0.000000000000     2.827849838641    34.968852682000
      Gh(H)           0.000000000000    -2.147710000000    -2.473480161359     1.007825032230
      Gh(H)           0.000000000000    -2.051420000000     0.020049838641     1.007825032230
      Gh(C)           0.000000000000     0.000000000000    -2.667280161359    12.000000000000
      Gh(C)           0.000000000000    -1.196400000000    -1.963170161359    12.000000000000
      Gh(C)           0.000000000000    -1.149310000000    -0.577230161359    12.000000000000
      Gh(N)           0.000000000000     0.000000000000     0.095759838641    14.003074004430
      Gh(C)          -0.000000000000     1.149310000000    -0.577230161359    12.000000000000
      Gh(C)          -0.000000000000     1.196400000000    -1.963170161359    12.000000000000
      Gh(H)          -0.000000000000     2.051420000000     0.020049838641     1.007825032230
      Gh(H)          -0.000000000000     2.147710000000    -2.473480161359     1.007825032230
      Gh(H)           0.000000000000     0.000000000000    -3.747860161359     1.007825032230

  Running in c1 symmetry.

  Rotational constants: A =      0.20108  B =      0.03411  C =      0.02916 [cm^-1]
  Rotational constants: A =   6028.26605  B =   1022.47606  C =    874.19985 [MHz]
  Nuclear repulsion =    6.578629416136486

  Charge       = 0
  Multiplicity = 1
  Electrons    = 18
  Nalpha       = 9
  Nbeta        = 9

  ==> Algorithm <==

  SCF Algorithm Type is DF.
  DIIS enabled.
  MOM disabled.
  Fractional occupation disabled.
  Guess Type is SAD.
  Energy threshold   = 1.00e-08
  Density threshold  = 1.00e-08
  Integral threshold = 1.00e-12

  ==> Primary Basis <==

  Basis Set: THIS_BASIS
    Blend: AUG-CC-PVQZ
    Number of shells: 226
    Number of basis functions: 840
    Number of Cartesian functions: 1069
    Spherical Harmonics?: true
    Max angular momentum: 4

   => Loading Basis Set <=

    Name: (THIS_BASIS AUX)
    Role: JKFIT
    Keyword: DF_BASIS_SCF
    atoms 1, 3-4, 11-13 entry H          line    70 file /home/vance/anaconda3/envs/p4env/share/psi4/basis/aug-cc-pvqz-jkfit.gbs 
    atoms 2             entry CL         line   904 file /home/vance/anaconda3/envs/p4env/share/psi4/basis/aug-cc-pvqz-jkfit.gbs 
    atoms 5-7, 9-10     entry C          line   178 file /home/vance/anaconda3/envs/p4env/share/psi4/basis/aug-cc-pvqz-jkfit.gbs 
    atoms 8             entry N          line   248 file /home/vance/anaconda3/envs/p4env/share/psi4/basis/aug-cc-pvqz-jkfit.gbs 

  ==> Integral Setup <==

  ==> DiskDFJK: Density-Fitted J/K Matrices <==

    J tasked:                  Yes
    K tasked:                  Yes
    wK tasked:                  No
    OpenMP threads:              4
    Integrals threads:           4
    Memory [MiB]:             5722
    Algorithm:                Core
    Integral Cache:           LOAD
    Schwarz Cutoff:          1E-12
    Fitting Condition:       1E-10

   => Auxiliary Basis Set <=

  Basis Set: (THIS_BASIS AUX)
    Blend: AUG-CC-PVQZ-JKFIT
    Number of shells: 358
    Number of basis functions: 1492
    Number of Cartesian functions: 2041
    Spherical Harmonics?: true
    Max angular momentum: 5

  Minimum eigenvalue in the overlap matrix is 4.6950513759E-07.
  Reciprocal condition number of the overlap matrix is 2.5142748874E-08.
    Using symmetric orthogonalization.

  ==> Pre-Iterations <==

  SCF Guess: Superposition of Atomic Densities via on-the-fly atomic UHF (no occupation information).

   -------------------------
    Irrep   Nso     Nmo    
   -------------------------
     A        840     840 
   -------------------------
    Total     840     840
   -------------------------

  ==> Iterations <==

                           Total Energy        Delta E     RMS |[F,P]|

   @DF-RHF iter SAD:  -459.85524087120655   -4.59855e+02   0.00000e+00 
   @DF-RHF iter   1:  -460.08191505718281   -2.26674e-01   2.28174e-04 DIIS/ADIIS
   @DF-RHF iter   2:  -460.10249527025775   -2.05802e-02   9.81482e-05 DIIS
   @DF-RHF iter   3:  -460.10542945903455   -2.93419e-03   1.82446e-05 DIIS
   @DF-RHF iter   4:  -460.10578430912432   -3.54850e-04   5.27929e-06 DIIS
   @DF-RHF iter   5:  -460.10581937573232   -3.50666e-05   7.53640e-07 DIIS
   @DF-RHF iter   6:  -460.10582000212753   -6.26395e-07   1.56780e-07 DIIS
   @DF-RHF iter   7:  -460.10582001657104   -1.44435e-08   3.58072e-08 DIIS
   @DF-RHF iter   8:  -460.10582001770359   -1.13255e-09   7.21744e-09 DIIS
  Energy and wave function converged.


  ==> Post-Iterations <==

    Orbital Energies [Eh]
    ---------------------

    Doubly Occupied:                                                      

       1A   -104.853153     2A    -10.576674     3A     -8.043761  
       4A     -8.042096     5A     -8.042096     6A     -1.101460  
       7A     -0.605713     8A     -0.474775     9A     -0.474770  

    Virtual:                                                              

      10A      0.013145    11A      0.027006    12A      0.029466  
      13A      0.044153    14A      0.045831    15A      0.049029  
      16A      0.059730    17A      0.065526    18A      0.080292  
      19A      0.080668    20A      0.080917    21A      0.082280  
      22A      0.086824    23A      0.094823    24A      0.105011  
      25A      0.110515    26A      0.111793    27A      0.112320  
      28A      0.116055    29A      0.120828    30A      0.128732  
      31A      0.129370    32A      0.133408    33A      0.143012  
      34A      0.151812    35A      0.156428    36A      0.158323  
      37A      0.164060    38A      0.167084    39A      0.180178  
      40A      0.205641    41A      0.214881    42A      0.217738  
      43A      0.219766    44A      0.223586    45A      0.224724  
      46A      0.228465    47A      0.239798    48A      0.248839  
      49A      0.250458    50A      0.255395    51A      0.261419  
      52A      0.261765    53A      0.267263    54A      0.281712  
      55A      0.282618    56A      0.282721    57A      0.293786  
      58A      0.297483    59A      0.299662    60A      0.302678  
      61A      0.307522    62A      0.310363    63A      0.318803  
      64A      0.324987    65A      0.325669    66A      0.333336  
      67A      0.339400    68A      0.341497    69A      0.341900  
      70A      0.354088    71A      0.358843    72A      0.364850  
      73A      0.367407    74A      0.369269    75A      0.370693  
      76A      0.376409    77A      0.377232    78A      0.395230  
      79A      0.405224    80A      0.405955    81A      0.425429  
      82A      0.431293    83A      0.438834    84A      0.441801  
      85A      0.447596    86A      0.451085    87A      0.456617  
      88A      0.461696    89A      0.462294    90A      0.478407  
      91A      0.481095    92A      0.484282    93A      0.484590  
      94A      0.490420    95A      0.504997    96A      0.516757  
      97A      0.520023    98A      0.525908    99A      0.527675  
     100A      0.532545   101A      0.533987   102A      0.538954  
     103A      0.544722   104A      0.559758   105A      0.571267  
     106A      0.576058   107A      0.581041   108A      0.585633  
     109A      0.586028   110A      0.587265   111A      0.596270  
     112A      0.604061   113A      0.609953   114A      0.612831  
     115A      0.619698   116A      0.632569   117A      0.639053  
     118A      0.648452   119A      0.656734   120A      0.672060  
     121A      0.676807   122A      0.678446   123A      0.694349  
     124A      0.702879   125A      0.703306   126A      0.712774  
     127A      0.720569   128A      0.723271   129A      0.740755  
     130A      0.743423   131A      0.757405   132A      0.766187  
     133A      0.769535   134A      0.771440   135A      0.774687  
     136A      0.790888   137A      0.793945   138A      0.798735  
     139A      0.801335   140A      0.807918   141A      0.812551  
     142A      0.814660   143A      0.825710   144A      0.831008  
     145A      0.845850   146A      0.852227   147A      0.856668  
     148A      0.867623   149A      0.879243   150A      0.881767  
     151A      0.888827   152A      0.896417   153A      0.898609  
     154A      0.909006   155A      0.916869   156A      0.932276  
     157A      0.932426   158A      0.941320   159A      0.955935  
     160A      0.962590   161A      0.963728   162A      0.963910  
     163A      0.964553   164A      0.979441   165A      0.984038  
     166A      0.989717   167A      0.991863   168A      0.999569  
     169A      1.007986   170A      1.017091   171A      1.026095  
     172A      1.030257   173A      1.038342   174A      1.044652  
     175A      1.051513   176A      1.057333   177A      1.058630  
     178A      1.064369   179A      1.066965   180A      1.067299  
     181A      1.070425   182A      1.076292   183A      1.086572  
     184A      1.103066   185A      1.104817   186A      1.104994  
     187A      1.106767   188A      1.124405   189A      1.130920  
     190A      1.139562   191A      1.152368   192A      1.171570  
     193A      1.177590   194A      1.181733   195A      1.186604  
     196A      1.190089   197A      1.205558   198A      1.225793  
     199A      1.234517   200A      1.236780   201A      1.256145  
     202A      1.262131   203A      1.271106   204A      1.287952  
     205A      1.292902   206A      1.293035   207A      1.311690  
     208A      1.314990   209A      1.323185   210A      1.326911  
     211A      1.329238   212A      1.360597   213A      1.365485  
     214A      1.365791   215A      1.375978   216A      1.388316  
     217A      1.399762   218A      1.441128   219A      1.449543  
     220A      1.461998   221A      1.463921   222A      1.468626  
     223A      1.494978   224A      1.507076   225A      1.515057  
     226A      1.541023   227A      1.545952   228A      1.552193  
     229A      1.556939   230A      1.559665   231A      1.569321  
     232A      1.574416   233A      1.582359   234A      1.586522  
     235A      1.589277   236A      1.596512   237A      1.602629  
     238A      1.610709   239A      1.618296   240A      1.620387  
     241A      1.632969   242A      1.637972   243A      1.648542  
     244A      1.654560   245A      1.679226   246A      1.692592  
     247A      1.721298   248A      1.722015   249A      1.736499  
     250A      1.737166   251A      1.757513   252A      1.762264  
     253A      1.767091   254A      1.774236   255A      1.781096  
     256A      1.784573   257A      1.786437   258A      1.804886  
     259A      1.812466   260A      1.814545   261A      1.816150  
     262A      1.819381   263A      1.825854   264A      1.829286  
     265A      1.840207   266A      1.854071   267A      1.858628  
     268A      1.866873   269A      1.867062   270A      1.868960  
     271A      1.897494   272A      1.903878   273A      1.914259  
     274A      1.922170   275A      1.928477   276A      1.933412  
     277A      1.946218   278A      1.952332   279A      1.979968  
     280A      1.981569   281A      1.981640   282A      1.989644  
     283A      1.997558   284A      2.002475   285A      2.008673  
     286A      2.009673   287A      2.023191   288A      2.027721  
     289A      2.036818   290A      2.053450   291A      2.065647  
     292A      2.074843   293A      2.077914   294A      2.095033  
     295A      2.101237   296A      2.102404   297A      2.112714  
     298A      2.113458   299A      2.124036   300A      2.135925  
     301A      2.138984   302A      2.145544   303A      2.148917  
     304A      2.149960   305A      2.150951   306A      2.153033  
     307A      2.180052   308A      2.184140   309A      2.199091  
     310A      2.201936   311A      2.208492   312A      2.228113  
     313A      2.229952   314A      2.251364   315A      2.267582  
     316A      2.271644   317A      2.297596   318A      2.303409  
     319A      2.304489   320A      2.310315   321A      2.322403  
     322A      2.333495   323A      2.351751   324A      2.354404  
     325A      2.355074   326A      2.360461   327A      2.376849  
     328A      2.380283   329A      2.392906   330A      2.408232  
     331A      2.410529   332A      2.413994   333A      2.427167  
     334A      2.434473   335A      2.441586   336A      2.447447  
     337A      2.481830   338A      2.483786   339A      2.487602  
     340A      2.488745   341A      2.498022   342A      2.514522  
     343A      2.536067   344A      2.559967   345A      2.563924  
     346A      2.564613   347A      2.564703   348A      2.576653  
     349A      2.606440   350A      2.615955   351A      2.624790  
     352A      2.633160   353A      2.640015   354A      2.642145  
     355A      2.646041   356A      2.646150   357A      2.666158  
     358A      2.718228   359A      2.727811   360A      2.731626  
     361A      2.737357   362A      2.757736   363A      2.764078  
     364A      2.769074   365A      2.777679   366A      2.786589  
     367A      2.793271   368A      2.801351   369A      2.836489  
     370A      2.842093   371A      2.846119   372A      2.850566  
     373A      2.865748   374A      2.865837   375A      2.882941  
     376A      2.900345   377A      2.910464   378A      2.912733  
     379A      2.915983   380A      2.949851   381A      2.959372  
     382A      2.959739   383A      3.004224   384A      3.014733  
     385A      3.015056   386A      3.015673   387A      3.020099  
     388A      3.039161   389A      3.057488   390A      3.063308  
     391A      3.071310   392A      3.086536   393A      3.102100  
     394A      3.105457   395A      3.131982   396A      3.140043  
     397A      3.151589   398A      3.158502   399A      3.159014  
     400A      3.166552   401A      3.179555   402A      3.193815  
     403A      3.210118   404A      3.241386   405A      3.252370  
     406A      3.255692   407A      3.267724   408A      3.275005  
     409A      3.287834   410A      3.295053   411A      3.297092  
     412A      3.305866   413A      3.310764   414A      3.316244  
     415A      3.337397   416A      3.378743   417A      3.384582  
     418A      3.391732   419A      3.418848   420A      3.422427  
     421A      3.434255   422A      3.443133   423A      3.449084  
     424A      3.470578   425A      3.502581   426A      3.504415  
     427A      3.519048   428A      3.525472   429A      3.543043  
     430A      3.552826   431A      3.577007   432A      3.581215  
     433A      3.587450   434A      3.611730   435A      3.624026  
     436A      3.635831   437A      3.676238   438A      3.678274  
     439A      3.691297   440A      3.704611   441A      3.713371  
     442A      3.729355   443A      3.732761   444A      3.771111  
     445A      3.793591   446A      3.817904   447A      3.819420  
     448A      3.823698   449A      3.836075   450A      3.875030  
     451A      3.917851   452A      3.921973   453A      3.925887  
     454A      3.927035   455A      3.954134   456A      3.959793  
     457A      3.962905   458A      3.968220   459A      3.975386  
     460A      3.981297   461A      4.008397   462A      4.011109  
     463A      4.044115   464A      4.067420   465A      4.122379  
     466A      4.123449   467A      4.131642   468A      4.141261  
     469A      4.163514   470A      4.168521   471A      4.193593  
     472A      4.195364   473A      4.207500   474A      4.228665  
     475A      4.246053   476A      4.278936   477A      4.283875  
     478A      4.287599   479A      4.323061   480A      4.349218  
     481A      4.371590   482A      4.386881   483A      4.387009  
     484A      4.406613   485A      4.425379   486A      4.425960  
     487A      4.431190   488A      4.451355   489A      4.458921  
     490A      4.471887   491A      4.489048   492A      4.537633  
     493A      4.555559   494A      4.556378   495A      4.570364  
     496A      4.580100   497A      4.632125   498A      4.634045  
     499A      4.641508   500A      4.703293   501A      4.707030  
     502A      4.729481   503A      4.731214   504A      4.731424  
     505A      4.732894   506A      4.737127   507A      4.746259  
     508A      4.748503   509A      4.769514   510A      4.788017  
     511A      4.792233   512A      4.837937   513A      4.843778  
     514A      4.851529   515A      4.859362   516A      4.882113  
     517A      4.904667   518A      4.908648   519A      4.930029  
     520A      4.941692   521A      4.984474   522A      5.002837  
     523A      5.011677   524A      5.023676   525A      5.041710  
     526A      5.053502   527A      5.062307   528A      5.070387  
     529A      5.101920   530A      5.107177   531A      5.120499  
     532A      5.137328   533A      5.143995   534A      5.154409  
     535A      5.156934   536A      5.179468   537A      5.183888  
     538A      5.225705   539A      5.241368   540A      5.241934  
     541A      5.250067   542A      5.277986   543A      5.304609  
     544A      5.318273   545A      5.322645   546A      5.349163  
     547A      5.358179   548A      5.403761   549A      5.419854  
     550A      5.438738   551A      5.471416   552A      5.475423  
     553A      5.543934   554A      5.570723   555A      5.574879  
     556A      5.585494   557A      5.615803   558A      5.643433  
     559A      5.676276   560A      5.728214   561A      5.731118  
     562A      5.793214   563A      5.860154   564A      5.864988  
     565A      5.879249   566A      5.900750   567A      5.981025  
     568A      6.068472   569A      6.127259   570A      6.147123  
     571A      6.232344   572A      6.239637   573A      6.351811  
     574A      6.371970   575A      6.377878   576A      6.432338  
     577A      6.435033   578A      6.475248   579A      6.485781  
     580A      6.491878   581A      6.530213   582A      6.545403  
     583A      6.595244   584A      6.637608   585A      6.645820  
     586A      6.680073   587A      6.706386   588A      6.709377  
     589A      6.765462   590A      6.772968   591A      6.782662  
     592A      6.797563   593A      6.823568   594A      6.824836  
     595A      6.871774   596A      6.879463   597A      6.915264  
     598A      6.917266   599A      6.963374   600A      6.988869  
     601A      6.993495   602A      7.050485   603A      7.073729  
     604A      7.091561   605A      7.096549   606A      7.123294  
     607A      7.129565   608A      7.173784   609A      7.199638  
     610A      7.231878   611A      7.247100   612A      7.258910  
     613A      7.269619   614A      7.276224   615A      7.278084  
     616A      7.288945   617A      7.310864   618A      7.332545  
     619A      7.346691   620A      7.352372   621A      7.363076  
     622A      7.398925   623A      7.404453   624A      7.451289  
     625A      7.485453   626A      7.490946   627A      7.493709  
     628A      7.510484   629A      7.516431   630A      7.571784  
     631A      7.586292   632A      7.605683   633A      7.609538  
     634A      7.613718   635A      7.621296   636A      7.700590  
     637A      7.709376   638A      7.738099   639A      7.760037  
     640A      7.839920   641A      7.859302   642A      7.864333  
     643A      7.871420   644A      7.871454   645A      7.910592  
     646A      7.941743   647A      7.955207   648A      7.956193  
     649A      7.977800   650A      8.006142   651A      8.053192  
     652A      8.078522   653A      8.114062   654A      8.136079  
     655A      8.137385   656A      8.194920   657A      8.238775  
     658A      8.272834   659A      8.283772   660A      8.317394  
     661A      8.318682   662A      8.332085   663A      8.378329  
     664A      8.424177   665A      8.484074   666A      8.491840  
     667A      8.504380   668A      8.546012   669A      8.548887  
     670A      8.567237   671A      8.673223   672A      8.731765  
     673A      8.737450   674A      8.758735   675A      8.798503  
     676A      8.818204   677A      8.835334   678A      8.870189  
     679A      8.877338   680A      8.895182   681A      8.940765  
     682A      8.997330   683A      9.020200   684A      9.043903  
     685A      9.061218   686A      9.062964   687A      9.076757  
     688A      9.120267   689A      9.121763   690A      9.139641  
     691A      9.149801   692A      9.162147   693A      9.180284  
     694A      9.230525   695A      9.239683   696A      9.268619  
     697A      9.278132   698A      9.326839   699A      9.331902  
     700A      9.342905   701A      9.389678   702A      9.398215  
     703A      9.464179   704A      9.501168   705A      9.506214  
     706A      9.523201   707A      9.554435   708A      9.558942  
     709A      9.584917   710A      9.618938   711A      9.632434  
     712A      9.650138   713A      9.677508   714A      9.681337  
     715A      9.701280   716A      9.711296   717A      9.795482  
     718A      9.838575   719A      9.851675   720A      9.859933  
     721A      9.861893   722A      9.882655   723A      9.954148  
     724A      9.971287   725A      9.973875   726A      9.984680  
     727A      9.999665   728A     10.027661   729A     10.033802  
     730A     10.058198   731A     10.092036   732A     10.094471  
     733A     10.113214   734A     10.116491   735A     10.174821  
     736A     10.178760   737A     10.213324   738A     10.228967  
     739A     10.241081   740A     10.254691   741A     10.256184  
     742A     10.341872   743A     10.379703   744A     10.406871  
     745A     10.450674   746A     10.459354   747A     10.470765  
     748A     10.501688   749A     10.531989   750A     10.534896  
     751A     10.631999   752A     10.663104   753A     10.668756  
     754A     10.734874   755A     10.739672   756A     10.768046  
     757A     10.778618   758A     10.801598   759A     10.802160  
     760A     10.853381   761A     10.877975   762A     10.904621  
     763A     10.921223   764A     10.930451   765A     10.964865  
     766A     10.970222   767A     11.008687   768A     11.012427  
     769A     11.024870   770A     11.084480   771A     11.182304  
     772A     11.192019   773A     11.208030   774A     11.231924  
     775A     11.254707   776A     11.324801   777A     11.384911  
     778A     11.589761   779A     11.598701   780A     11.603871  
     781A     11.671974   782A     11.822136   783A     11.863198  
     784A     11.895363   785A     11.945068   786A     12.003712  
     787A     12.019670   788A     12.076888   789A     12.147641  
     790A     12.161628   791A     12.251278   792A     12.353988  
     793A     12.377278   794A     12.523061   795A     12.558175  
     796A     12.618754   797A     12.990015   798A     13.095200  
     799A     13.194311   800A     13.209472   801A     13.222413  
     802A     13.291421   803A     13.364464   804A     13.458816  
     805A     13.706134   806A     13.750828   807A     13.854080  
     808A     13.913168   809A     14.113851   810A     14.135215  
     811A     14.308736   812A     14.363682   813A     14.399689  
     814A     14.630693   815A     14.684623   816A     14.821689  
     817A     15.150526   818A     15.174170   819A     15.658513  
     820A     16.216906   821A     16.309185   822A     16.545788  
     823A     16.594784   824A     17.097170   825A     17.340803  
     826A     17.612815   827A     17.822905   828A     17.917390  
     829A     17.952444   830A     18.154408   831A     18.367065  
     832A     20.718285   833A     20.745061   834A     27.726871  
     835A     68.514280   836A     68.688580   837A     69.181489  
     838A     69.481540   839A     69.859347   840A     94.029132  

    Final Occupation by Irrep:
              A 
    DOCC [     9 ]
    NA   [     9 ]
    NB   [     9 ]

  @DF-RHF Final Energy:  -460.10582001770359

   => Energetics <=

    Nuclear Repulsion Energy =              6.5786294161364864
    One-Electron Energy =                -648.9398958051690443
    Two-Electron Energy =                 182.2554463713289579
    Total Energy =                       -460.1058200177036497

Computation Completed


Properties will be evaluated at   0.000000,   0.000000,   0.000000 [a0]

Properties computed using the SCF density matrix


 Multipole Moments:

 ------------------------------------------------------------------------------------
     Multipole            Electronic (a.u.)      Nuclear  (a.u.)        Total (a.u.)
 ------------------------------------------------------------------------------------

 L = 1.  Multiply by 2.5417464519 to convert [e a0] to [Debye]
 Dipole X            :          0.0000000            0.0000000            0.0000000
 Dipole Y            :         -0.0000000            0.0000000           -0.0000000
 Dipole Z            :        -94.1154087           93.6053861           -0.5100226
 Magnitude           :                                                    0.5100226

 ------------------------------------------------------------------------------------

*** tstop() called on cmpsrv002 at Thu Sep 26 15:32:02 2024
Module time:
	user time   =      98.32 seconds =       1.64 minutes
	system time =       4.08 seconds =       0.07 minutes
	total time  =         56 seconds =       0.93 minutes
Total time:
	user time   =     477.53 seconds =       7.96 minutes
	system time =      30.60 seconds =       0.51 minutes
	total time  =        389 seconds =       6.48 minutes

*** tstart() called on cmpsrv002
*** at Thu Sep 26 15:32:02 2024


  //>>>>>>>>>>>>>>>>>>>>>>>>>>>>>>>>>>>//
  //               DFMP2               //
  //<<<<<<<<<<<<<<<<<<<<<<<<<<<<<<<<<<<//

   => Loading Basis Set <=

    Name: (THIS_BASIS AUX)
    Role: RIFIT
    Keyword: DF_BASIS_MP2
    atoms 1, 3-4, 11-13 entry H          line    30 file /home/vance/anaconda3/envs/p4env/share/psi4/basis/aug-cc-pvqz-ri.gbs 
    atoms 2             entry CL         line   914 file /home/vance/anaconda3/envs/p4env/share/psi4/basis/aug-cc-pvqz-ri.gbs 
    atoms 5-7, 9-10     entry C          line   184 file /home/vance/anaconda3/envs/p4env/share/psi4/basis/aug-cc-pvqz-ri.gbs 
    atoms 8             entry N          line   258 file /home/vance/anaconda3/envs/p4env/share/psi4/basis/aug-cc-pvqz-ri.gbs 

	 --------------------------------------------------------
	                          DF-MP2                         
	      2nd-Order Density-Fitted Moller-Plesset Theory     
	              RMP2 Wavefunction,   4 Threads             
	                                                         
	        Rob Parrish, Justin Turney, Andy Simmonett,      
	           Ed Hohenstein, and C. David Sherrill          
	 --------------------------------------------------------

   => Auxiliary Basis Set <=

  Basis Set: (THIS_BASIS AUX)
    Blend: AUG-CC-PVQZ-RI
    Number of shells: 380
    Number of basis functions: 1682
    Number of Cartesian functions: 2320
    Spherical Harmonics?: true
    Max angular momentum: 5

	 --------------------------------------------------------
	                 NBF =   840, NAUX =  1682
	 --------------------------------------------------------
	   CLASS    FOCC     OCC    AOCC    AVIR     VIR    FVIR
	   PAIRS       0       9       9     831     831       0
	 --------------------------------------------------------

	 Will attempt to load fitting metric from file 97.

	-----------------------------------------------------------
	 ==================> DF-MP2 Energies <==================== 
	-----------------------------------------------------------
	 Reference Energy          =    -460.1058200177035928 [Eh]
	 Singles Energy            =      -0.0000000000000000 [Eh]
	 Same-Spin Energy          =      -0.0696958732292828 [Eh]
	 Opposite-Spin Energy      =      -0.2214553290302672 [Eh]
	 Correlation Energy        =      -0.2911512022595499 [Eh]
	 Total Energy              =    -460.3969712199631203 [Eh]
	-----------------------------------------------------------
	 ================> DF-SCS-MP2 Energies <================== 
	-----------------------------------------------------------
	 SCS Same-Spin Scale       =       0.3333333333333333 [-]
	 SCS Opposite-Spin Scale   =       1.2000000000000000 [-]
	 SCS Same-Spin Energy      =      -0.0232319577430943 [Eh]
	 SCS Opposite-Spin Energy  =      -0.2657463948363206 [Eh]
	 SCS Correlation Energy    =      -0.2889783525794148 [Eh]
	 SCS Total Energy          =    -460.3947983702830129 [Eh]
	-----------------------------------------------------------


*** tstop() called on cmpsrv002 at Thu Sep 26 15:32:46 2024
Module time:
	user time   =      28.99 seconds =       0.48 minutes
	system time =       3.71 seconds =       0.06 minutes
	total time  =         44 seconds =       0.73 minutes
Total time:
	user time   =     506.52 seconds =       8.44 minutes
	system time =      34.31 seconds =       0.57 minutes
	total time  =        433 seconds =       7.22 minutes

  //>>>>>>>>>>>>>>>>>>>>>>>>>>>>>>>>>>>//
  //            Monomer B HF           //
  //<<<<<<<<<<<<<<<<<<<<<<<<<<<<<<<<<<<//

   => Libint2 <=

    Primary   basis highest AM E, G, H:  6, 6, 3
    Auxiliary basis highest AM E, G, H:  7, 7, 4
    Onebody   basis highest AM E, G, H:  -, -, -
    Solid Harmonics ordering:            Gaussian

*** tstart() called on cmpsrv002
*** at Thu Sep 26 15:32:46 2024

   => Loading Basis Set <=

    Name: THIS_BASIS
    Role: ORBITAL
    Keyword: BASIS
    atoms 1, 3-4, 11-13 entry H          line    40 file /home/vance/anaconda3/envs/p4env/share/psi4/basis/aug-cc-pvqz.gbs 
    atoms 2             entry CL         line  1222 file /home/vance/anaconda3/envs/p4env/share/psi4/basis/aug-cc-pvqz.gbs 
    atoms 5-7, 9-10     entry C          line   303 file /home/vance/anaconda3/envs/p4env/share/psi4/basis/aug-cc-pvqz.gbs 
    atoms 8             entry N          line   363 file /home/vance/anaconda3/envs/p4env/share/psi4/basis/aug-cc-pvqz.gbs 


         ---------------------------------------------------------
                                   SCF
               by Justin Turney, Rob Parrish, Andy Simmonett
                          and Daniel G. A. Smith
                              RHF Reference
                        4 Threads,   7629 MiB Core
         ---------------------------------------------------------

  ==> Geometry <==

    Molecular point group: c1
    Full point group: C2v

    Geometry (in Angstrom), charge = 0, multiplicity = 1:

       Center              X                  Y                   Z               Mass       
    ------------   -----------------  -----------------  -----------------  -----------------
      Gh(H)           0.000000000000     0.000000000000     1.460389838641     1.007825032230
      Gh(CL)          0.000000000000     0.000000000000     2.827849838641    34.968852682000
         H            0.000000000000    -2.147710000000    -2.473480161359     1.007825032230
         H            0.000000000000    -2.051420000000     0.020049838641     1.007825032230
         C            0.000000000000     0.000000000000    -2.667280161359    12.000000000000
         C            0.000000000000    -1.196400000000    -1.963170161359    12.000000000000
         C            0.000000000000    -1.149310000000    -0.577230161359    12.000000000000
         N            0.000000000000     0.000000000000     0.095759838641    14.003074004430
         C           -0.000000000000     1.149310000000    -0.577230161359    12.000000000000
         C           -0.000000000000     1.196400000000    -1.963170161359    12.000000000000
         H           -0.000000000000     2.051420000000     0.020049838641     1.007825032230
         H           -0.000000000000     2.147710000000    -2.473480161359     1.007825032230
         H            0.000000000000     0.000000000000    -3.747860161359     1.007825032230

  Running in c1 symmetry.

  Rotational constants: A =      0.20108  B =      0.03411  C =      0.02916 [cm^-1]
  Rotational constants: A =   6028.26605  B =   1022.47606  C =    874.19985 [MHz]
  Nuclear repulsion =  206.982930093006985

  Charge       = 0
  Multiplicity = 1
  Electrons    = 42
  Nalpha       = 21
  Nbeta        = 21

  ==> Algorithm <==

  SCF Algorithm Type is DF.
  DIIS enabled.
  MOM disabled.
  Fractional occupation disabled.
  Guess Type is SAD.
  Energy threshold   = 1.00e-08
  Density threshold  = 1.00e-08
  Integral threshold = 1.00e-12

  ==> Primary Basis <==

  Basis Set: THIS_BASIS
    Blend: AUG-CC-PVQZ
    Number of shells: 226
    Number of basis functions: 840
    Number of Cartesian functions: 1069
    Spherical Harmonics?: true
    Max angular momentum: 4

   => Loading Basis Set <=

    Name: (THIS_BASIS AUX)
    Role: JKFIT
    Keyword: DF_BASIS_SCF
    atoms 1, 3-4, 11-13 entry H          line    70 file /home/vance/anaconda3/envs/p4env/share/psi4/basis/aug-cc-pvqz-jkfit.gbs 
    atoms 2             entry CL         line   904 file /home/vance/anaconda3/envs/p4env/share/psi4/basis/aug-cc-pvqz-jkfit.gbs 
    atoms 5-7, 9-10     entry C          line   178 file /home/vance/anaconda3/envs/p4env/share/psi4/basis/aug-cc-pvqz-jkfit.gbs 
    atoms 8             entry N          line   248 file /home/vance/anaconda3/envs/p4env/share/psi4/basis/aug-cc-pvqz-jkfit.gbs 

  ==> Integral Setup <==

  ==> DiskDFJK: Density-Fitted J/K Matrices <==

    J tasked:                  Yes
    K tasked:                  Yes
    wK tasked:                  No
    OpenMP threads:              4
    Integrals threads:           4
    Memory [MiB]:             5722
    Algorithm:                Core
    Integral Cache:           LOAD
    Schwarz Cutoff:          1E-12
    Fitting Condition:       1E-10

   => Auxiliary Basis Set <=

  Basis Set: (THIS_BASIS AUX)
    Blend: AUG-CC-PVQZ-JKFIT
    Number of shells: 358
    Number of basis functions: 1492
    Number of Cartesian functions: 2041
    Spherical Harmonics?: true
    Max angular momentum: 5

  Minimum eigenvalue in the overlap matrix is 4.6950513759E-07.
  Reciprocal condition number of the overlap matrix is 2.5142748874E-08.
    Using symmetric orthogonalization.

  ==> Pre-Iterations <==

  SCF Guess: Superposition of Atomic Densities via on-the-fly atomic UHF (no occupation information).

   -------------------------
    Irrep   Nso     Nmo    
   -------------------------
     A        840     840 
   -------------------------
    Total     840     840
   -------------------------

  ==> Iterations <==

                           Total Energy        Delta E     RMS |[F,P]|

   @DF-RHF iter SAD:  -246.22487110740829   -2.46225e+02   0.00000e+00 
   @DF-RHF iter   1:  -246.64409481199306   -4.19224e-01   6.00274e-04 DIIS/ADIIS
   @DF-RHF iter   2:  -246.76644530294712   -1.22350e-01   2.80352e-04 DIIS/ADIIS
   @DF-RHF iter   3:  -246.79205059883910   -2.56053e-02   5.41148e-05 DIIS
   @DF-RHF iter   4:  -246.79347943504735   -1.42884e-03   1.67215e-05 DIIS
   @DF-RHF iter   5:  -246.79357544106165   -9.60060e-05   5.19440e-06 DIIS
   @DF-RHF iter   6:  -246.79358709092995   -1.16499e-05   1.22755e-06 DIIS
   @DF-RHF iter   7:  -246.79358801342471   -9.22495e-07   4.53100e-07 DIIS
   @DF-RHF iter   8:  -246.79358815196841   -1.38544e-07   2.06058e-07 DIIS
   @DF-RHF iter   9:  -246.79358820425253   -5.22841e-08   6.70545e-08 DIIS
   @DF-RHF iter  10:  -246.79358821274340   -8.49087e-09   2.27462e-08 DIIS
   @DF-RHF iter  11:  -246.79358821387154   -1.12814e-09   1.29664e-08 DIIS
   @DF-RHF iter  12:  -246.79358821410193   -2.30386e-10   2.97992e-09 DIIS
  Energy and wave function converged.


  ==> Post-Iterations <==

    Orbital Energies [Eh]
    ---------------------

    Doubly Occupied:                                                      

       1A    -15.560464     2A    -11.272264     3A    -11.272246  
       4A    -11.257398     5A    -11.239949     6A    -11.239893  
       7A     -1.259692     8A     -1.088993     9A     -1.037207  
      10A     -0.858657    11A     -0.858543    12A     -0.723885  
      13A     -0.662837    14A     -0.654494    15A     -0.602556  
      16A     -0.575912    17A     -0.543828    18A     -0.523327  
      19A     -0.413746    20A     -0.383773    21A     -0.349863  

    Virtual:                                                              

      22A      0.022790    23A      0.028734    24A      0.031792  
      25A      0.043016    26A      0.044145    27A      0.060024  
      28A      0.063651    29A      0.081635    30A      0.082907  
      31A      0.087498    32A      0.089232    33A      0.091382  
      34A      0.097312    35A      0.098484    36A      0.100106  
      37A      0.105655    38A      0.113427    39A      0.114693  
      40A      0.120008    41A      0.121781    42A      0.125333  
      43A      0.130186    44A      0.131851    45A      0.132577  
      46A      0.137226    47A      0.150240    48A      0.155873  
      49A      0.161518    50A      0.189121    51A      0.206390  
      52A      0.210200    53A      0.211157    54A      0.214761  
      55A      0.223703    56A      0.231083    57A      0.238291  
      58A      0.246972    59A      0.252064    60A      0.252830  
      61A      0.253622    62A      0.253783    63A      0.257583  
      64A      0.280974    65A      0.282193    66A      0.282882  
      67A      0.283553    68A      0.288217    69A      0.288749  
      70A      0.295118    71A      0.302560    72A      0.309071  
      73A      0.310477    74A      0.314360    75A      0.316921  
      76A      0.319084    77A      0.325992    78A      0.335716  
      79A      0.344765    80A      0.347695    81A      0.358713  
      82A      0.358995    83A      0.367481    84A      0.371644  
      85A      0.377675    86A      0.377781    87A      0.389675  
      88A      0.393056    89A      0.395701    90A      0.400716  
      91A      0.409707    92A      0.419639    93A      0.421984  
      94A      0.423932    95A      0.432771    96A      0.432824  
      97A      0.435315    98A      0.444897    99A      0.456678  
     100A      0.462982   101A      0.463483   102A      0.465544  
     103A      0.466682   104A      0.466762   105A      0.479234  
     106A      0.491528   107A      0.493209   108A      0.502240  
     109A      0.510019   110A      0.510209   111A      0.518574  
     112A      0.519417   113A      0.520816   114A      0.528893  
     115A      0.545913   116A      0.546469   117A      0.567120  
     118A      0.570378   119A      0.576762   120A      0.583267  
     121A      0.585999   122A      0.587156   123A      0.591310  
     124A      0.600958   125A      0.605436   126A      0.620979  
     127A      0.636465   128A      0.642079   129A      0.659088  
     130A      0.660428   131A      0.668090   132A      0.669934  
     133A      0.672856   134A      0.686048   135A      0.698677  
     136A      0.700422   137A      0.722961   138A      0.723544  
     139A      0.724081   140A      0.730328   141A      0.732985  
     142A      0.736123   143A      0.743668   144A      0.747802  
     145A      0.763598   146A      0.772402   147A      0.773834  
     148A      0.777142   149A      0.781173   150A      0.784084  
     151A      0.788137   152A      0.790652   153A      0.801094  
     154A      0.801484   155A      0.808461   156A      0.815468  
     157A      0.828816   158A      0.832079   159A      0.843392  
     160A      0.846336   161A      0.860488   162A      0.866190  
     163A      0.868444   164A      0.889946   165A      0.891378  
     166A      0.895800   167A      0.901333   168A      0.904113  
     169A      0.923900   170A      0.926876   171A      0.932190  
     172A      0.934013   173A      0.943380   174A      0.946658  
     175A      0.952075   176A      0.959088   177A      0.971774  
     178A      0.978463   179A      0.983907   180A      0.984313  
     181A      0.997311   182A      0.998569   183A      1.007754  
     184A      1.017071   185A      1.019081   186A      1.024987  
     187A      1.025328   188A      1.032297   189A      1.043603  
     190A      1.046455   191A      1.059958   192A      1.064308  
     193A      1.069183   194A      1.069345   195A      1.088798  
     196A      1.095482   197A      1.104729   198A      1.111089  
     199A      1.117379   200A      1.127983   201A      1.135502  
     202A      1.155083   203A      1.156518   204A      1.164226  
     205A      1.165385   206A      1.166951   207A      1.175687  
     208A      1.181815   209A      1.196011   210A      1.200544  
     211A      1.206828   212A      1.209173   213A      1.221740  
     214A      1.247079   215A      1.251600   216A      1.254742  
     217A      1.269451   218A      1.276758   219A      1.281808  
     220A      1.294115   221A      1.303305   222A      1.309469  
     223A      1.314943   224A      1.323459   225A      1.337313  
     226A      1.350098   227A      1.372008   228A      1.374484  
     229A      1.380234   230A      1.383224   231A      1.387239  
     232A      1.390808   233A      1.398295   234A      1.402581  
     235A      1.418217   236A      1.424086   237A      1.426940  
     238A      1.462467   239A      1.463231   240A      1.469919  
     241A      1.480755   242A      1.501440   243A      1.513085  
     244A      1.524154   245A      1.535780   246A      1.543584  
     247A      1.544090   248A      1.545435   249A      1.556483  
     250A      1.567986   251A      1.576584   252A      1.583385  
     253A      1.592501   254A      1.605032   255A      1.614962  
     256A      1.615796   257A      1.626894   258A      1.634478  
     259A      1.641362   260A      1.660455   261A      1.674638  
     262A      1.688961   263A      1.707098   264A      1.717554  
     265A      1.718524   266A      1.731988   267A      1.739305  
     268A      1.769708   269A      1.771930   270A      1.780108  
     271A      1.783680   272A      1.805218   273A      1.805778  
     274A      1.810182   275A      1.822230   276A      1.838961  
     277A      1.847852   278A      1.854788   279A      1.857509  
     280A      1.870294   281A      1.893268   282A      1.903001  
     283A      1.911515   284A      1.915098   285A      1.922806  
     286A      1.935687   287A      1.939892   288A      1.947091  
     289A      1.951750   290A      1.961469   291A      1.962469  
     292A      1.975659   293A      1.979794   294A      1.990640  
[...]
     382A      2.701952   383A      2.726593   384A      2.751513  
     385A      2.764044   386A      2.764143   387A      2.767885  
     388A      2.804760   389A      2.806261   390A      2.811998  
     391A      2.816959   392A      2.833515   393A      2.850898  
     394A      2.852650   395A      2.869990   396A      2.873177  
     397A      2.875257   398A      2.875966   399A      2.891340  
     400A      2.915300   401A      2.940438   402A      2.958862  
     403A      2.970538   404A      2.986642   405A      3.005310  
     406A      3.010632   407A      3.012365   408A      3.017074  
     409A      3.045627   410A      3.065695   411A      3.066077  
     412A      3.081429   413A      3.084242   414A      3.120453  
     415A      3.128602   416A      3.160560   417A      3.168163  
     418A      3.168567   419A      3.178072   420A      3.179615  
     421A      3.181061   422A      3.210357   423A      3.215613  
     424A      3.221978   425A      3.234292   426A      3.239529  
     427A      3.268263   428A      3.298533   429A      3.299776  
     430A      3.306818   431A      3.320457   432A      3.327125  
     433A      3.340500   434A      3.359017   435A      3.361592  
     436A      3.375995   437A      3.387586   438A      3.396708  
     439A      3.397094   440A      3.398571   441A      3.414353  
     442A      3.427295   443A      3.459100   444A      3.483742  
     445A      3.487709   446A      3.508924   447A      3.520122  
     448A      3.548110   449A      3.561501   450A      3.590780  
     451A      3.611836   452A      3.612699   453A      3.622437  
     454A      3.637774   455A      3.643181   456A      3.650678  
     457A      3.661171   458A      3.715895   459A      3.723905  
     460A      3.728382   461A      3.738684   462A      3.742937  
     463A      3.808752   464A      3.810396   465A      3.812500  
     466A      3.829428   467A      3.832101   468A      3.838039  
     469A      3.886188   470A      3.888850   471A      3.904582  
     472A      3.922042   473A      3.932232   474A      3.934579  
     475A      3.937545   476A      3.940304   477A      3.953733  
     478A      3.996234   479A      3.999743   480A      4.012966  
     481A      4.019403   482A      4.045628   483A      4.049508  
     484A      4.060350   485A      4.086618   486A      4.103934  
     487A      4.108318   488A      4.113743   489A      4.136256  
     490A      4.151598   491A      4.182546   492A      4.186435  
     493A      4.237656   494A      4.239221   495A      4.263198  
     496A      4.271277   497A      4.291717   498A      4.300689  
     499A      4.326838   500A      4.336650   501A      4.343828  
     502A      4.354500   503A      4.369337   504A      4.392373  
     505A      4.416751   506A      4.422344   507A      4.449458  
     508A      4.451669   509A      4.468982   510A      4.475974  
     511A      4.505679   512A      4.514219   513A      4.547976  
     514A      4.565666   515A      4.569708   516A      4.595264  
     517A      4.612558   518A      4.625266   519A      4.640488  
     520A      4.667835   521A      4.682044   522A      4.685670  
     523A      4.693545   524A      4.703534   525A      4.774178  
     526A      4.781745   527A      4.819031   528A      4.857805  
     529A      4.870277   530A      4.911381   531A      4.911931  
     532A      4.919147   533A      4.930227   534A      4.958983  
     535A      4.974277   536A      5.014708   537A      5.036830  
     538A      5.044940   539A      5.065729   540A      5.066573  
     541A      5.121341   542A      5.125269   543A      5.137466  
     544A      5.185207   545A      5.248250   546A      5.275514  
     547A      5.304086   548A      5.353932   549A      5.410730  
     550A      5.422901   551A      5.428417   552A      5.449361  
     553A      5.474519   554A      5.484661   555A      5.488213  
     556A      5.513266   557A      5.545790   558A      5.547973  
     559A      5.579604   560A      5.593337   561A      5.626061  
     562A      5.663491   563A      5.681209   564A      5.764158  
     565A      5.812173   566A      5.861287   567A      5.871477  
     568A      5.890882   569A      5.893879   570A      5.912203  
     571A      5.944336   572A      6.005266   573A      6.025440  
     574A      6.032030   575A      6.056599   576A      6.086732  
     577A      6.107496   578A      6.110594   579A      6.141365  
     580A      6.165222   581A      6.171401   582A      6.194717  
     583A      6.212463   584A      6.226247   585A      6.263012  
     586A      6.272731   587A      6.296546   588A      6.311473  
     589A      6.330771   590A      6.341934   591A      6.345817  
     592A      6.366199   593A      6.391570   594A      6.398263  
     595A      6.460215   596A      6.465646   597A      6.486296  
     598A      6.515107   599A      6.518589   600A      6.534728  
     601A      6.540185   602A      6.584979   603A      6.586267  
     604A      6.599326   605A      6.615252   606A      6.629217  
     607A      6.635870   608A      6.641549   609A      6.656867  
     610A      6.692414   611A      6.699319   612A      6.734688  
     613A      6.738145   614A      6.740527   615A      6.762337  
     616A      6.770558   617A      6.779320   618A      6.785321  
     619A      6.813612   620A      6.867305   621A      6.893857  
     622A      6.894047   623A      6.897529   624A      6.912801  
     625A      6.934420   626A      6.968348   627A      6.978096  
     628A      6.983634   629A      7.015079   630A      7.035238  
     631A      7.043546   632A      7.062713   633A      7.074767  
     634A      7.084419   635A      7.102545   636A      7.118424  
     637A      7.125620   638A      7.150226   639A      7.151561  
     640A      7.165641   641A      7.203909   642A      7.212400  
     643A      7.213489   644A      7.246071   645A      7.246853  
     646A      7.285909   647A      7.299322   648A      7.318204  
     649A      7.338878   650A      7.353481   651A      7.366146  
     652A      7.375624   653A      7.378877   654A      7.414201  
     655A      7.418383   656A      7.454974   657A      7.462035  
     658A      7.481049   659A      7.511779   660A      7.540506  
     661A      7.543961   662A      7.583693   663A      7.589565  
     664A      7.594793   665A      7.629696   666A      7.640627  
     667A      7.653638   668A      7.685669   669A      7.727396  
     670A      7.742435   671A      7.761322   672A      7.779135  
     673A      7.814084   674A      7.833712   675A      7.843518  
     676A      7.870416   677A      7.870765   678A      7.881218  
     679A      7.890045   680A      7.900715   681A      7.950377  
     682A      7.978869   683A      7.999204   684A      8.044078  
     685A      8.058251   686A      8.060726   687A      8.082703  
     688A      8.087595   689A      8.110917   690A      8.130641  
     691A      8.145930   692A      8.149153   693A      8.158939  
     694A      8.189387   695A      8.194494   696A      8.209747  
     697A      8.251086   698A      8.297654   699A      8.333878  
     700A      8.359435   701A      8.384842   702A      8.431211  
     703A      8.452248   704A      8.458863   705A      8.486294  
     706A      8.510869   707A      8.548885   708A      8.608571  
     709A      8.617228   710A      8.651146   711A      8.654998  
     712A      8.659641   713A      8.677621   714A      8.716484  
     715A      8.721402   716A      8.748595   717A      8.792898  
     718A      8.854512   719A      8.884916   720A      8.885999  
     721A      8.901780   722A      8.923944   723A      8.935713  
     724A      8.963171   725A      8.990043   726A      8.995018  
     727A      9.005141   728A      9.077963   729A      9.081773  
     730A      9.094047   731A      9.114859   732A      9.121726  
     733A      9.167006   734A      9.182064   735A      9.213264  
     736A      9.257250   737A      9.274141   738A      9.290196  
     739A      9.369942   740A      9.377389   741A      9.380779  
     742A      9.395955   743A      9.431973   744A      9.457829  
     745A      9.463743   746A      9.495977   747A      9.515642  
     748A      9.516305   749A      9.562241   750A      9.578163  
     751A      9.584462   752A      9.586866   753A      9.602112  
     754A      9.621240   755A      9.633371   756A      9.653736  
     757A      9.725398   758A      9.752797   759A      9.770170  
     760A      9.806080   761A      9.852736   762A      9.895716  
     763A      9.913166   764A      9.923755   765A      9.946860  
     766A     10.005064   767A     10.010782   768A     10.014566  
     769A     10.035664   770A     10.037796   771A     10.079164  
     772A     10.132207   773A     10.159334   774A     10.232791  
     775A     10.256013   776A     10.256369   777A     10.330365  
     778A     10.335281   779A     10.360196   780A     10.393371  
     781A     10.425741   782A     10.439383   783A     10.447299  
     784A     10.473056   785A     10.527462   786A     10.544389  
     787A     10.562354   788A     10.591928   789A     10.594982  
     790A     10.637352   791A     10.654536   792A     10.681290  
     793A     10.703397   794A     10.781814   795A     10.800213  
     796A     10.817109   797A     10.826000   798A     10.842441  
     799A     10.890648   800A     10.895574   801A     10.910631  
     802A     10.970817   803A     11.107664   804A     11.216097  
     805A     11.264166   806A     11.304404   807A     11.338092  
     808A     11.412714   809A     11.445336   810A     11.491425  
     811A     11.553807   812A     11.644849   813A     11.693770  
     814A     11.727334   815A     11.754965   816A     11.799321  
     817A     11.948039   818A     12.335573   819A     12.396497  
     820A     12.582910   821A     12.866355   822A     12.952361  
     823A     13.254064   824A     13.377921   825A     13.434058  
     826A     13.565207   827A     13.660121   828A     13.844525  
     829A     14.526607   830A     26.368083   831A     26.472040  
     832A     26.811638   833A     27.077422   834A     27.364585  
     835A     31.129059   836A     31.208691   837A     31.493229  
     838A     34.938007   839A     44.795004   840A    160.669240  

    Final Occupation by Irrep:
              A 
    DOCC [    21 ]
    NA   [    21 ]
    NB   [    21 ]

  @DF-RHF Final Energy:  -246.79358821410193

   => Energetics <=

    Nuclear Repulsion Energy =            206.9829300930069849
    One-Electron Energy =                -742.7939813766498673
    Two-Electron Energy =                 289.0174630695409519
    Total Energy =                       -246.7935882141019306

Computation Completed


Properties will be evaluated at   0.000000,   0.000000,   0.000000 [a0]

Properties computed using the SCF density matrix


 Multipole Moments:

 ------------------------------------------------------------------------------------
     Multipole            Electronic (a.u.)      Nuclear  (a.u.)        Total (a.u.)
 ------------------------------------------------------------------------------------

 L = 1.  Multiply by 2.5417464519 to convert [e a0] to [Debye]
 Dipole X            :          0.0000000           -0.0000000            0.0000000
 Dipole Y            :         -0.0000000           -0.0000000           -0.0000000
 Dipole Z            :        102.0545510         -102.9388373           -0.8842863
 Magnitude           :                                                    0.8842863

 ------------------------------------------------------------------------------------

*** tstop() called on cmpsrv002 at Thu Sep 26 15:34:26 2024
Module time:
	user time   =     171.36 seconds =       2.86 minutes
	system time =       6.07 seconds =       0.10 minutes
	total time  =        100 seconds =       1.67 minutes
Total time:
	user time   =     677.89 seconds =      11.30 minutes
	system time =      40.38 seconds =       0.67 minutes
	total time  =        533 seconds =       8.88 minutes

*** tstart() called on cmpsrv002
*** at Thu Sep 26 15:34:26 2024


  //>>>>>>>>>>>>>>>>>>>>>>>>>>>>>>>>>>>//
  //               DFMP2               //
  //<<<<<<<<<<<<<<<<<<<<<<<<<<<<<<<<<<<//

   => Loading Basis Set <=

    Name: (THIS_BASIS AUX)
    Role: RIFIT
    Keyword: DF_BASIS_MP2
    atoms 1, 3-4, 11-13 entry H          line    30 file /home/vance/anaconda3/envs/p4env/share/psi4/basis/aug-cc-pvqz-ri.gbs 
    atoms 2             entry CL         line   914 file /home/vance/anaconda3/envs/p4env/share/psi4/basis/aug-cc-pvqz-ri.gbs 
    atoms 5-7, 9-10     entry C          line   184 file /home/vance/anaconda3/envs/p4env/share/psi4/basis/aug-cc-pvqz-ri.gbs 
    atoms 8             entry N          line   258 file /home/vance/anaconda3/envs/p4env/share/psi4/basis/aug-cc-pvqz-ri.gbs 

	 --------------------------------------------------------
	                          DF-MP2                         
	      2nd-Order Density-Fitted Moller-Plesset Theory     
	              RMP2 Wavefunction,   4 Threads             
	                                                         
	        Rob Parrish, Justin Turney, Andy Simmonett,      
	           Ed Hohenstein, and C. David Sherrill          
	 --------------------------------------------------------

   => Auxiliary Basis Set <=

  Basis Set: (THIS_BASIS AUX)
    Blend: AUG-CC-PVQZ-RI
    Number of shells: 380
    Number of basis functions: 1682
    Number of Cartesian functions: 2320
    Spherical Harmonics?: true
    Max angular momentum: 5

	 --------------------------------------------------------
	                 NBF =   840, NAUX =  1682
	 --------------------------------------------------------
	   CLASS    FOCC     OCC    AOCC    AVIR     VIR    FVIR
	   PAIRS       0      21      21     819     819       0
	 --------------------------------------------------------

	 Will attempt to load fitting metric from file 97.

	-----------------------------------------------------------
	 ==================> DF-MP2 Energies <==================== 
	-----------------------------------------------------------
	 Reference Energy          =    -246.7935882141019306 [Eh]
	 Singles Energy            =      -0.0000000000000000 [Eh]
	 Same-Spin Energy          =      -0.2842507994344936 [Eh]
	 Opposite-Spin Energy      =      -0.9428244183670900 [Eh]
	 Correlation Energy        =      -1.2270752178015836 [Eh]
	 Total Energy              =    -248.0206634319035004 [Eh]
	-----------------------------------------------------------
	 ================> DF-SCS-MP2 Energies <================== 
	-----------------------------------------------------------
	 SCS Same-Spin Scale       =       0.3333333333333333 [-]
	 SCS Opposite-Spin Scale   =       1.2000000000000000 [-]
	 SCS Same-Spin Energy      =      -0.0947502664781645 [Eh]
	 SCS Opposite-Spin Energy  =      -1.1313893020405079 [Eh]
	 SCS Correlation Energy    =      -1.2261395685186725 [Eh]
	 SCS Total Energy          =    -248.0197277826206061 [Eh]
	-----------------------------------------------------------


*** tstop() called on cmpsrv002 at Thu Sep 26 15:35:36 2024
Module time:
	user time   =      52.06 seconds =       0.87 minutes
	system time =       4.70 seconds =       0.08 minutes
	total time  =         70 seconds =       1.17 minutes
Total time:
	user time   =     729.96 seconds =      12.17 minutes
	system time =      45.08 seconds =       0.75 minutes
	total time  =        603 seconds =      10.05 minutes
  Constructing Basis Sets for SAPT...

   => Loading Basis Set <=

    Name: (THIS_BASIS AUX)
    Role: RIFIT
    Keyword: DF_BASIS_SAPT
    atoms 1, 3-4, 11-13 entry H          line    30 file /home/vance/anaconda3/envs/p4env/share/psi4/basis/aug-cc-pvqz-ri.gbs 
    atoms 2             entry CL         line   914 file /home/vance/anaconda3/envs/p4env/share/psi4/basis/aug-cc-pvqz-ri.gbs 
    atoms 5-7, 9-10     entry C          line   184 file /home/vance/anaconda3/envs/p4env/share/psi4/basis/aug-cc-pvqz-ri.gbs 
    atoms 8             entry N          line   258 file /home/vance/anaconda3/envs/p4env/share/psi4/basis/aug-cc-pvqz-ri.gbs 

   => Loading Basis Set <=

    Name: (THIS_BASIS AUX)
    Role: JKFIT
    Keyword: DF_BASIS_ELST
    atoms 1, 3-4, 11-13 entry H          line    70 file /home/vance/anaconda3/envs/p4env/share/psi4/basis/aug-cc-pvqz-jkfit.gbs 
    atoms 2             entry CL         line   904 file /home/vance/anaconda3/envs/p4env/share/psi4/basis/aug-cc-pvqz-jkfit.gbs 
    atoms 5-7, 9-10     entry C          line   178 file /home/vance/anaconda3/envs/p4env/share/psi4/basis/aug-cc-pvqz-jkfit.gbs 
    atoms 8             entry N          line   248 file /home/vance/anaconda3/envs/p4env/share/psi4/basis/aug-cc-pvqz-jkfit.gbs 


  //>>>>>>>>>>>>>>>>>>>>>>>>>>>>>>>>>>>//
  //             SAPT2+DMP2            //
  //<<<<<<<<<<<<<<<<<<<<<<<<<<<<<<<<<<<//


*** tstart() called on cmpsrv002
*** at Thu Sep 26 15:35:36 2024

        SAPT2+  
    Ed Hohenstein
     6 June 2009

      Orbital Information
  --------------------------
    NSO        =       840
    NMO        =       840
    NRI        =      1682
    NOCC A     =         9
    NOCC B     =        21
    FOCC A     =         0
    FOCC B     =         0
    NVIR A     =       831
    NVIR B     =       819

    Estimated memory usage: 16601.1 MB


Traceback (most recent call last):
  File "/home/vance/anaconda3/envs/p4env/bin/psi4", line 387, in <module>
    exec(content)
  File "<string>", line 58, in <module>
  File "/home/vance/anaconda3/envs/p4env/lib/python3.12/site-packages/psi4/driver/driver.py", line 525, in energy
    wfn = procedures['energy'][lowername](lowername, molecule=molecule, **kwargs)
          ^^^^^^^^^^^^^^^^^^^^^^^^^^^^^^^^^^^^^^^^^^^^^^^^^^^^^^^^^^^^^^^^^^^^^^^
  File "/home/vance/anaconda3/envs/p4env/lib/python3.12/site-packages/psi4/driver/procrouting/proc.py", line 4660, in run_sapt
    e_sapt = core.sapt(dimer_wfn, monomerA_wfn, monomerB_wfn)
             ^^^^^^^^^^^^^^^^^^^^^^^^^^^^^^^^^^^^^^^^^^^^^^^^

RuntimeError: 
Fatal Error: Not enough memory
Error occurred in file: /home/conda/feedstock_root/build_artifacts/psi4_1720499718168/work/psi4/src/psi4/libsapt_solver/sapt2p.cc on line: 189
The most recent 5 function calls were:

psi::PsiException::PsiException(std::__cxx11::basic_string<char, std::char_traits<char>, std::allocator<char> >, char const*, int)



Printing out the relevant lines from the Psithon --> Python processed input file:
    core.IO.set_default_namespace("")
    core.set_global_option("SCF_TYPE", "DF")
    core.set_global_option("FREEZE_CORE", "false")
    core.set_global_option("DO_IND_EXCH_SINF", "true")
    core.set_global_option("DO_DISP_EXCH_SINF", "true")
--> nrg = energy('sapt2+dmp2')

!----------------------------------------------------------------------------------!
!                                                                                  !
! Fatal Error: Not enough memory                                                   !
! Error occurred in file: /home/conda/feedstock_root/build_artifacts/psi4_17204997 !
!     18168/work/psi4/src/psi4/libsapt_solver/sapt2p.cc on line: 189               !
! The most recent 5 function calls were:                                           !
! psi::PsiException::PsiException(std::__cxx11::basic_string<char,                 !
!     std::char_traits<char>, std::allocator<char> >, char const*, int)            !
!                                                                                  !
!----------------------------------------------------------------------------------!

    Psi4 stopped on: Thursday, 26 September 2024 03:35PM
    Psi4 wall time for execution: 0:10:03.75

*** Psi4 encountered an error. Buy a developer more coffee!
*** Resources and help at github.com/psi4/psi4.
