
    -----------------------------------------------------------------------
          Psi4: An Open-Source Ab Initio Electronic Structure Package
                               Psi4 1.9.1 release

                         Git: Rev {} zzzzzzz 


    D. G. A. Smith, L. A. Burns, A. C. Simmonett, R. M. Parrish,
    M. C. Schieber, R. Galvelis, P. Kraus, H. Kruse, R. Di Remigio,
    A. Alenaizan, A. M. James, S. Lehtola, J. P. Misiewicz, M. Scheurer,
    R. A. Shaw, J. B. Schriber, Y. Xie, Z. L. Glick, D. A. Sirianni,
    J. S. O'Brien, J. M. Waldrop, A. Kumar, E. G. Hohenstein,
    B. P. Pritchard, B. R. Brooks, H. F. Schaefer III, A. Yu. Sokolov,
    K. Patkowski, A. E. DePrince III, U. Bozkaya, R. A. King,
    F. A. Evangelista, J. M. Turney, T. D. Crawford, C. D. Sherrill,
    J. Chem. Phys. 152(18) 184108 (2020). https://doi.org/10.1063/5.0006002

                            Additional Code Authors
    E. T. Seidl, C. L. Janssen, E. F. Valeev, M. L. Leininger,
    J. F. Gonthier, R. M. Richard, H. R. McAlexander, M. Saitow, X. Wang,
    P. Verma, M. H. Lechner, A. Jiang, S. Behnle, A. G. Heide,
    M. F. Herbst, and D. L. Poole

             Previous Authors, Complete List of Code Contributors,
                       and Citations for Specific Modules
    https://github.com/psi4/psi4/blob/master/codemeta.json
    https://github.com/psi4/psi4/graphs/contributors
    http://psicode.org/psi4manual/master/introduction.html#citing-psifour

    -----------------------------------------------------------------------


    Psi4 started on: Thursday, 26 September 2024 03:25PM

    Process ID: 636591
    Host:       cmpsrv002
    PSIDATADIR: /home/vance/anaconda3/envs/p4env/share/psi4
    Memory:     500.0 MiB
    Threads:    8
    
  ==> Input File <==

--------------------------------------------------------------------------
#charge=0 charge_a=0 charge_b=0 selection_a=1-2 selection_b=3-6 scaling=0.85 benchmark_Eint=-8.203 benchmark_unit=kcal/mol group=XH-N
set_num_threads(4)
memory 8 GB
basis this_basis {
    assign    aug-cc-pVQZ
}

molecule {
     0 1
    --
     0 1
     H        0.00002       -0.93248        0.00000
    Br       -0.00001        0.58174        0.00000
    --
     0 1
     N        0.00002       -2.33168        0.00000
     H       -0.47435       -2.68414        0.82165
     H       -0.47435       -2.68414       -0.82165
     H        0.94878       -2.68415        0.00000
}

set {
    scf_type                DF
    freeze_core             false
    do_ind_exch_sinf        true
    do_disp_exch_sinf       true
}

nrg = energy('sapt2+dmp2')
--------------------------------------------------------------------------
  Threads set to 4 by Python driver.

  Memory set to   7.451 GiB by Python driver.

Scratch directory: /scratch2/vance/psi4/
  SAPT does not make use of molecular symmetry, further calculations in C1 point group.
   => Loading Basis Set <=

    Name: THIS_BASIS
    Role: ORBITAL
    Keyword: BASIS
    atoms 1, 4-6 entry H          line    40 file /home/vance/anaconda3/envs/p4env/share/psi4/basis/aug-cc-pvqz.gbs 
    atoms 2      entry BR         line  5448 file /home/vance/anaconda3/envs/p4env/share/psi4/basis/aug-cc-pvqz.gbs 
    atoms 3      entry N          line   363 file /home/vance/anaconda3/envs/p4env/share/psi4/basis/aug-cc-pvqz.gbs 

   => Loading Basis Set <=

    Name: THIS_BASIS
    Role: ORBITAL
    Keyword: BASIS
    atoms 1, 4-6 entry H          line    40 file /home/vance/anaconda3/envs/p4env/share/psi4/basis/aug-cc-pvqz.gbs 
    atoms 2      entry BR         line  5448 file /home/vance/anaconda3/envs/p4env/share/psi4/basis/aug-cc-pvqz.gbs 
    atoms 3      entry N          line   363 file /home/vance/anaconda3/envs/p4env/share/psi4/basis/aug-cc-pvqz.gbs 


  //>>>>>>>>>>>>>>>>>>>>>>>>>>>>>>>>>>>//
  //              Dimer HF             //
  //<<<<<<<<<<<<<<<<<<<<<<<<<<<<<<<<<<<//

   => Libint2 <=

    Primary   basis highest AM E, G, H:  6, 6, 3
    Auxiliary basis highest AM E, G, H:  7, 7, 4
    Onebody   basis highest AM E, G, H:  -, -, -
    Solid Harmonics ordering:            Gaussian

*** tstart() called on cmpsrv002
*** at Thu Sep 26 15:25:33 2024

   => Loading Basis Set <=

    Name: THIS_BASIS
    Role: ORBITAL
    Keyword: BASIS
    atoms 1, 4-6 entry H          line    40 file /home/vance/anaconda3/envs/p4env/share/psi4/basis/aug-cc-pvqz.gbs 
    atoms 2      entry BR         line  5448 file /home/vance/anaconda3/envs/p4env/share/psi4/basis/aug-cc-pvqz.gbs 
    atoms 3      entry N          line   363 file /home/vance/anaconda3/envs/p4env/share/psi4/basis/aug-cc-pvqz.gbs 


         ---------------------------------------------------------
                                   SCF
               by Justin Turney, Rob Parrish, Andy Simmonett
                          and Daniel G. A. Smith
                              RHF Reference
                        4 Threads,   7629 MiB Core
         ---------------------------------------------------------

  ==> Geometry <==

    Molecular point group: c1
    Full point group: Cs

    Geometry (in Angstrom), charge = 0, multiplicity = 1:

       Center              X                  Y                   Z               Mass       
    ------------   -----------------  -----------------  -----------------  -----------------
         H            0.000024211738    -0.975841849661     0.000000000000     1.007825032230
         BR          -0.000005788262     0.538378150339     0.000000000000    78.918337600000
         N            0.000024211738    -2.375041849661     0.000000000000    14.003074004430
         H           -0.474345788262    -2.727501849661     0.821650000000     1.007825032230
         H           -0.474345788262    -2.727501849661    -0.821650000000     1.007825032230
         H            0.948784211738    -2.727511849661     0.000000000000     1.007825032230

  Running in c1 symmetry.

  Rotational constants: A =      6.19413  B =      0.13308  C =      0.13308 [cm^-1]
  Rotational constants: A = 185695.44928  B =   3989.52741  C =   3989.52684 [MHz]
  Nuclear repulsion =   88.459959689867304

  Charge       = 0
  Multiplicity = 1
  Electrons    = 46
  Nalpha       = 23
  Nbeta        = 23

  ==> Algorithm <==

  SCF Algorithm Type is DF.
  DIIS enabled.
  MOM disabled.
  Fractional occupation disabled.
  Guess Type is SAD.
  Energy threshold   = 1.00e-08
  Density threshold  = 1.00e-08
  Integral threshold = 1.00e-12

  ==> Primary Basis <==

  Basis Set: THIS_BASIS
    Blend: AUG-CC-PVQZ
    Number of shells: 101
    Number of basis functions: 357
    Number of Cartesian functions: 444
    Spherical Harmonics?: true
    Max angular momentum: 4

   => Loading Basis Set <=

    Name: (THIS_BASIS AUX)
    Role: JKFIT
    Keyword: DF_BASIS_SCF
    atoms 1, 4-6 entry H          line    70 file /home/vance/anaconda3/envs/p4env/share/psi4/basis/aug-cc-pvqz-jkfit.gbs 
    atoms 2      entry BR         line  1612 file /home/vance/anaconda3/envs/p4env/share/psi4/basis/aug-cc-pvqz-jkfit.gbs 
    atoms 3      entry N          line   248 file /home/vance/anaconda3/envs/p4env/share/psi4/basis/aug-cc-pvqz-jkfit.gbs 

  ==> Integral Setup <==

  ==> DiskDFJK: Density-Fitted J/K Matrices <==

    J tasked:                  Yes
    K tasked:                  Yes
    wK tasked:                  No
    OpenMP threads:              4
    Integrals threads:           4
    Memory [MiB]:             5722
    Algorithm:                Core
    Integral Cache:           SAVE
    Schwarz Cutoff:          1E-12
    Fitting Condition:       1E-10

   => Auxiliary Basis Set <=

  Basis Set: (THIS_BASIS AUX)
    Blend: AUG-CC-PVQZ-JKFIT
    Number of shells: 166
    Number of basis functions: 716
    Number of Cartesian functions: 973
    Spherical Harmonics?: true
    Max angular momentum: 5

  Minimum eigenvalue in the overlap matrix is 6.6910935724E-06.
  Reciprocal condition number of the overlap matrix is 5.3368916760E-07.
    Using symmetric orthogonalization.

  ==> Pre-Iterations <==

  SCF Guess: Superposition of Atomic Densities via on-the-fly atomic UHF (no occupation information).

   -------------------------
    Irrep   Nso     Nmo    
   -------------------------
     A        357     357 
   -------------------------
    Total     357     357
   -------------------------

  ==> Iterations <==

                           Total Energy        Delta E     RMS |[F,P]|

   @DF-RHF iter SAD: -2627.11485342554624   -2.62711e+03   0.00000e+00 
   @DF-RHF iter   1: -2628.96646750467062   -1.85161e+00   3.69838e-03 DIIS/ADIIS
   @DF-RHF iter   2: -2629.19911254367753   -2.32645e-01   2.06997e-03 DIIS/ADIIS
   @DF-RHF iter   3: -2629.27314587685441   -7.40333e-02   8.60845e-05 DIIS
   @DF-RHF iter   4: -2629.27397291787975   -8.27041e-04   2.43436e-05 DIIS
   @DF-RHF iter   5: -2629.27404564626977   -7.27284e-05   7.59020e-06 DIIS
   @DF-RHF iter   6: -2629.27405230366639   -6.65740e-06   2.60781e-06 DIIS
   @DF-RHF iter   7: -2629.27405298325721   -6.79591e-07   6.13752e-07 DIIS
   @DF-RHF iter   8: -2629.27405305656066   -7.33035e-08   2.21406e-07 DIIS
   @DF-RHF iter   9: -2629.27405306410537   -7.54471e-09   4.38944e-08 DIIS
   @DF-RHF iter  10: -2629.27405306448190   -3.76531e-10   7.16209e-09 DIIS
  Energy and wave function converged.


  ==> Post-Iterations <==

    Orbital Energies [Eh]
    ---------------------

    Doubly Occupied:                                                      

       1A   -489.953195     2A    -65.094698     3A    -58.449450  
       4A    -58.449040     5A    -58.449040     6A    -15.618415  
       7A     -9.768512     8A     -7.377969     9A     -7.375043  
      10A     -7.375043    11A     -3.120347    12A     -3.118533  
      13A     -3.118533    14A     -3.115217    15A     -3.115217  
      16A     -1.230656    17A     -0.959351    18A     -0.710998  
      19A     -0.710992    20A     -0.634087    21A     -0.399539  
      22A     -0.370576    23A     -0.370576  

    Virtual:                                                              

      24A      0.010809    25A      0.034695    26A      0.034695  
      27A      0.049545    28A      0.091728    29A      0.100343  
      30A      0.100502    31A      0.100502    32A      0.121560  
      33A      0.121560    34A      0.138751    35A      0.156512  
      36A      0.156512    37A      0.165416    38A      0.190658  
      39A      0.190658    40A      0.253850    41A      0.257244  
      42A      0.257245    43A      0.262083    44A      0.264758  
      45A      0.296397    46A      0.296397    47A      0.302137  
      48A      0.306281    49A      0.306281    50A      0.320838  
      51A      0.346686    52A      0.346688    53A      0.363115  
      54A      0.363115    55A      0.382891    56A      0.403550  
      57A      0.403724    58A      0.403724    59A      0.424328  
      60A      0.433153    61A      0.433155    62A      0.440168  
      63A      0.513302    64A      0.513306    65A      0.528881  
      66A      0.528885    67A      0.556640    68A      0.602569  
      69A      0.603332    70A      0.603332    71A      0.624099  
      72A      0.624101    73A      0.655901    74A      0.674643  
      75A      0.685122    76A      0.694669    77A      0.694670  
      78A      0.714167    79A      0.714168    80A      0.714645  
      81A      0.740276    82A      0.740277    83A      0.747071  
      84A      0.752534    85A      0.794306    86A      0.794308  
      87A      0.796822    88A      0.844865    89A      0.854111  
      90A      0.854114    91A      0.877341    92A      0.877341  
      93A      0.889184    94A      0.889189    95A      0.899498  
      96A      0.927035    97A      0.927628    98A      0.927628  
      99A      0.941105   100A      1.011729   101A      1.011732  
     102A      1.050492   103A      1.050496   104A      1.096757  
     105A      1.140725   106A      1.140726   107A      1.142237  
     108A      1.286269   109A      1.286273   110A      1.307613  
     111A      1.307614   112A      1.321248   113A      1.328995  
     114A      1.356249   115A      1.390688   116A      1.390691  
     117A      1.397568   118A      1.397568   119A      1.421850  
     120A      1.424420   121A      1.498881   122A      1.498882  
     123A      1.522543   124A      1.522548   125A      1.528115  
     126A      1.539303   127A      1.559541   128A      1.559541  
     129A      1.564597   130A      1.570336   131A      1.570338  
     132A      1.590075   133A      1.638953   134A      1.638961  
     135A      1.652912   136A      1.667274   137A      1.691635  
     138A      1.691638   139A      1.703006   140A      1.709950  
     141A      1.709953   142A      1.755934   143A      1.755935  
     144A      1.808030   145A      1.815834   146A      1.844954  
     147A      1.851230   148A      1.851232   149A      1.884908  
     150A      1.884910   151A      1.936255   152A      1.936259  
     153A      1.955325   154A      1.955325   155A      1.979335  
     156A      1.979338   157A      1.992761   158A      2.000427  
     159A      2.021789   160A      2.050054   161A      2.076516  
     162A      2.076517   163A      2.082623   164A      2.170071  
     165A      2.170967   166A      2.170970   167A      2.209820  
     168A      2.245577   169A      2.245577   170A      2.305481  
     171A      2.305483   172A      2.305616   173A      2.383097  
     174A      2.485498   175A      2.485502   176A      2.496231  
     177A      2.514019   178A      2.573094   179A      2.573095  
     180A      2.628419   181A      2.666748   182A      2.666757  
     183A      2.692307   184A      2.692307   185A      2.710158  
     186A      2.867788   187A      2.883857   188A      2.883858  
     189A      2.932831   190A      2.932831   191A      2.966716  
     192A      3.030993   193A      3.030995   194A      3.074356  
     195A      3.098016   196A      3.105260   197A      3.105266  
     198A      3.113875   199A      3.153102   200A      3.153107  
     201A      3.235551   202A      3.235553   203A      3.318288  
     204A      3.355097   205A      3.355102   206A      3.408389  
     207A      3.432153   208A      3.432160   209A      3.434559  
     210A      3.478455   211A      3.492813   212A      3.535136  
     213A      3.535139   214A      3.585479   215A      3.585481  
     216A      3.615219   217A      3.667996   218A      3.687384  
     219A      3.687386   220A      3.727520   221A      3.727520  
     222A      3.744460   223A      3.744517   224A      3.754404  
     225A      3.754406   226A      3.881341   227A      3.881341  
     228A      3.899987   229A      3.899994   230A      3.950490  
     231A      3.994992   232A      4.043845   233A      4.043850  
     234A      4.091196   235A      4.165453   236A      4.165456  
     237A      4.179530   238A      4.179949   239A      4.276404  
     240A      4.276405   241A      4.285931   242A      4.285937  
     243A      4.296124   244A      4.372653   245A      4.372656  
     246A      4.499975   247A      4.646176   248A      4.687789  
     249A      4.687790   250A      4.717443   251A      4.717455  
     252A      4.848312   253A      4.848318   254A      4.963892  
     255A      4.963896   256A      4.976520   257A      5.156131  
     258A      5.156135   259A      5.298393   260A      5.298393  
     261A      5.382223   262A      5.411780   263A      5.500959  
     264A      5.554226   265A      5.554229   266A      5.563752  
     267A      5.995976   268A      6.736688   269A      6.771331  
     270A      6.828847   271A      6.828849   272A      6.871374  
     273A      6.963561   274A      6.963563   275A      7.299766  
     276A      7.299766   277A      7.344934   278A      7.365482  
     279A      7.366179   280A      7.366188   281A      7.594797  
     282A      7.594810   283A      7.635957   284A      7.692204  
     285A      7.791785   286A      7.791803   287A      7.942505  
     288A      7.969009   289A      7.969016   290A      8.049028  
     291A      8.049038   292A      8.133394   293A      8.223827  
     294A      8.223829   295A      8.324770   296A      8.443502  
     297A      8.443511   298A      8.508383   299A      8.627798  
     300A      8.644565   301A      8.644571   302A      8.788389  
     303A      8.788390   304A      8.909562   305A      8.930312  
     306A      8.947263   307A      8.947267   308A      8.980110  
     309A      8.980113   310A      9.002187   311A      9.002192  
     312A      9.033845   313A      9.154277   314A      9.154942  
     315A      9.154949   316A      9.264142   317A      9.324430  
     318A      9.324446   319A      9.509106   320A      9.509109  
     321A      9.690130   322A      9.712187   323A      9.712191  
     324A      9.760838   325A      9.782535   326A      9.857295  
     327A      9.857300   328A     10.025119   329A     10.025130  
     330A     10.027914   331A     10.241692   332A     10.241692  
     333A     10.352736   334A     10.512087   335A     10.512097  
     336A     10.597145   337A     10.821564   338A     10.925010  
     339A     10.925025   340A     11.015875   341A     11.015889  
     342A     11.369328   343A     11.850562   344A     12.103985  
     345A     12.151921   346A     12.151951   347A     12.509334  
     348A     12.509382   349A     12.609778   350A     13.004201  
     351A     13.153172   352A     13.153200   353A     15.070619  
     354A     15.070659   355A     15.310386   356A     15.661494  
     357A     38.098365  

    Final Occupation by Irrep:
              A 
    DOCC [    23 ]
    NA   [    23 ]
    NB   [    23 ]

  @DF-RHF Final Energy: -2629.27405306448190

   => Energetics <=

    Nuclear Repulsion Energy =             88.4599596898673042
    One-Electron Energy =               -3837.6979770387265489
    Two-Electron Energy =                1119.9639642843771981
    Total Energy =                      -2629.2740530644819046

Computation Completed


Properties will be evaluated at   0.000000,   0.000000,   0.000000 [a0]

Properties computed using the SCF density matrix


 Multipole Moments:

 ------------------------------------------------------------------------------------
     Multipole            Electronic (a.u.)      Nuclear  (a.u.)        Total (a.u.)
 ------------------------------------------------------------------------------------

 L = 1.  Multiply by 2.5417464519 to convert [e a0] to [Debye]
 Dipole X            :         -0.0001280            0.0001582            0.0000302
 Dipole Y            :         10.6725047          -13.1154837           -2.4429790
 Dipole Z            :          0.0000000            0.0000000            0.0000000
 Magnitude           :                                                    2.4429790

 ------------------------------------------------------------------------------------

*** tstop() called on cmpsrv002 at Thu Sep 26 15:26:10 2024
Module time:
	user time   =      41.22 seconds =       0.69 minutes
	system time =       6.71 seconds =       0.11 minutes
	total time  =         37 seconds =       0.62 minutes
Total time:
	user time   =      41.22 seconds =       0.69 minutes
	system time =       6.71 seconds =       0.11 minutes
	total time  =         37 seconds =       0.62 minutes

*** tstart() called on cmpsrv002
*** at Thu Sep 26 15:26:10 2024


  //>>>>>>>>>>>>>>>>>>>>>>>>>>>>>>>>>>>//
  //               DFMP2               //
  //<<<<<<<<<<<<<<<<<<<<<<<<<<<<<<<<<<<//

   => Loading Basis Set <=

    Name: (THIS_BASIS AUX)
    Role: RIFIT
    Keyword: DF_BASIS_MP2
    atoms 1, 4-6 entry H          line    30 file /home/vance/anaconda3/envs/p4env/share/psi4/basis/aug-cc-pvqz-ri.gbs 
    atoms 2      entry BR         line  1518 file /home/vance/anaconda3/envs/p4env/share/psi4/basis/aug-cc-pvqz-ri.gbs 
    atoms 3      entry N          line   258 file /home/vance/anaconda3/envs/p4env/share/psi4/basis/aug-cc-pvqz-ri.gbs 

	 --------------------------------------------------------
	                          DF-MP2                         
	      2nd-Order Density-Fitted Moller-Plesset Theory     
	              RMP2 Wavefunction,   4 Threads             
	                                                         
	        Rob Parrish, Justin Turney, Andy Simmonett,      
	           Ed Hohenstein, and C. David Sherrill          
	 --------------------------------------------------------

   => Auxiliary Basis Set <=

  Basis Set: (THIS_BASIS AUX)
    Blend: AUG-CC-PVQZ-RI
    Number of shells: 168
    Number of basis functions: 750
    Number of Cartesian functions: 1044
    Spherical Harmonics?: true
    Max angular momentum: 6

	 --------------------------------------------------------
	                 NBF =   357, NAUX =   750
	 --------------------------------------------------------
	   CLASS    FOCC     OCC    AOCC    AVIR     VIR    FVIR
	   PAIRS       0      23      23     334     334       0
	 --------------------------------------------------------

	 Will save fitting metric to file 97.

	-----------------------------------------------------------
	 ==================> DF-MP2 Energies <==================== 
	-----------------------------------------------------------
	 Reference Energy          =   -2629.2740530644819046 [Eh]
	 Singles Energy            =      -0.0000000000000000 [Eh]
	 Same-Spin Energy          =      -0.1857650520370765 [Eh]
	 Opposite-Spin Energy      =      -0.5163132513873877 [Eh]
	 Correlation Energy        =      -0.7020783034244642 [Eh]
	 Total Energy              =   -2629.9761313679064187 [Eh]
	-----------------------------------------------------------
	 ================> DF-SCS-MP2 Energies <================== 
	-----------------------------------------------------------
	 SCS Same-Spin Scale       =       0.3333333333333333 [-]
	 SCS Opposite-Spin Scale   =       1.2000000000000000 [-]
	 SCS Same-Spin Energy      =      -0.0619216840123588 [Eh]
	 SCS Opposite-Spin Energy  =      -0.6195759016648652 [Eh]
	 SCS Correlation Energy    =      -0.6814975856772241 [Eh]
	 SCS Total Energy          =   -2629.9555506501592390 [Eh]
	-----------------------------------------------------------


*** tstop() called on cmpsrv002 at Thu Sep 26 15:26:22 2024
Module time:
	user time   =      14.13 seconds =       0.24 minutes
	system time =       2.14 seconds =       0.04 minutes
	total time  =         12 seconds =       0.20 minutes
Total time:
	user time   =      55.36 seconds =       0.92 minutes
	system time =       8.85 seconds =       0.15 minutes
	total time  =         49 seconds =       0.82 minutes

  //>>>>>>>>>>>>>>>>>>>>>>>>>>>>>>>>>>>//
  //            Monomer A HF           //
  //<<<<<<<<<<<<<<<<<<<<<<<<<<<<<<<<<<<//

   => Libint2 <=

    Primary   basis highest AM E, G, H:  6, 6, 3
    Auxiliary basis highest AM E, G, H:  7, 7, 4
    Onebody   basis highest AM E, G, H:  -, -, -
    Solid Harmonics ordering:            Gaussian

*** tstart() called on cmpsrv002
*** at Thu Sep 26 15:26:22 2024

   => Loading Basis Set <=

    Name: THIS_BASIS
    Role: ORBITAL
    Keyword: BASIS
    atoms 1, 4-6 entry H          line    40 file /home/vance/anaconda3/envs/p4env/share/psi4/basis/aug-cc-pvqz.gbs 
    atoms 2      entry BR         line  5448 file /home/vance/anaconda3/envs/p4env/share/psi4/basis/aug-cc-pvqz.gbs 
    atoms 3      entry N          line   363 file /home/vance/anaconda3/envs/p4env/share/psi4/basis/aug-cc-pvqz.gbs 


         ---------------------------------------------------------
                                   SCF
               by Justin Turney, Rob Parrish, Andy Simmonett
                          and Daniel G. A. Smith
                              RHF Reference
                        4 Threads,   7629 MiB Core
         ---------------------------------------------------------

  ==> Geometry <==

    Molecular point group: c1
    Full point group: Cs

    Geometry (in Angstrom), charge = 0, multiplicity = 1:

       Center              X                  Y                   Z               Mass       
    ------------   -----------------  -----------------  -----------------  -----------------
         H            0.000024211738    -0.975841849661     0.000000000000     1.007825032230
         BR          -0.000005788262     0.538378150339     0.000000000000    78.918337600000
      Gh(N)           0.000024211738    -2.375041849661     0.000000000000    14.003074004430
      Gh(H)          -0.474345788262    -2.727501849661     0.821650000000     1.007825032230
      Gh(H)          -0.474345788262    -2.727501849661    -0.821650000000     1.007825032230
      Gh(H)           0.948784211738    -2.727511849661     0.000000000000     1.007825032230

  Running in c1 symmetry.

  Rotational constants: A =      6.19413  B =      0.13308  C =      0.13308 [cm^-1]
  Rotational constants: A = 185695.44928  B =   3989.52741  C =   3989.52684 [MHz]
  Nuclear repulsion =   12.231513498576831

  Charge       = 0
  Multiplicity = 1
  Electrons    = 36
  Nalpha       = 18
  Nbeta        = 18

  ==> Algorithm <==

  SCF Algorithm Type is DF.
  DIIS enabled.
  MOM disabled.
  Fractional occupation disabled.
  Guess Type is SAD.
  Energy threshold   = 1.00e-08
  Density threshold  = 1.00e-08
  Integral threshold = 1.00e-12

  ==> Primary Basis <==

  Basis Set: THIS_BASIS
    Blend: AUG-CC-PVQZ
    Number of shells: 101
    Number of basis functions: 357
    Number of Cartesian functions: 444
    Spherical Harmonics?: true
    Max angular momentum: 4

   => Loading Basis Set <=

    Name: (THIS_BASIS AUX)
    Role: JKFIT
    Keyword: DF_BASIS_SCF
    atoms 1, 4-6 entry H          line    70 file /home/vance/anaconda3/envs/p4env/share/psi4/basis/aug-cc-pvqz-jkfit.gbs 
    atoms 2      entry BR         line  1612 file /home/vance/anaconda3/envs/p4env/share/psi4/basis/aug-cc-pvqz-jkfit.gbs 
    atoms 3      entry N          line   248 file /home/vance/anaconda3/envs/p4env/share/psi4/basis/aug-cc-pvqz-jkfit.gbs 

  ==> Integral Setup <==

  ==> DiskDFJK: Density-Fitted J/K Matrices <==

    J tasked:                  Yes
    K tasked:                  Yes
    wK tasked:                  No
    OpenMP threads:              4
    Integrals threads:           4
    Memory [MiB]:             5722
    Algorithm:                Core
    Integral Cache:           LOAD
    Schwarz Cutoff:          1E-12
    Fitting Condition:       1E-10

   => Auxiliary Basis Set <=

  Basis Set: (THIS_BASIS AUX)
    Blend: AUG-CC-PVQZ-JKFIT
    Number of shells: 166
    Number of basis functions: 716
    Number of Cartesian functions: 973
    Spherical Harmonics?: true
    Max angular momentum: 5

  Minimum eigenvalue in the overlap matrix is 6.6910935724E-06.
  Reciprocal condition number of the overlap matrix is 5.3368916760E-07.
    Using symmetric orthogonalization.

  ==> Pre-Iterations <==

  SCF Guess: Superposition of Atomic Densities via on-the-fly atomic UHF (no occupation information).

   -------------------------
    Irrep   Nso     Nmo    
   -------------------------
     A        357     357 
   -------------------------
    Total     357     357
   -------------------------

  ==> Iterations <==

                           Total Energy        Delta E     RMS |[F,P]|

   @DF-RHF iter SAD: -2571.14384265297349   -2.57114e+03   0.00000e+00 
   @DF-RHF iter   1: -2572.80773412895405   -1.66389e+00   3.49202e-03 DIIS/ADIIS
   @DF-RHF iter   2: -2572.98048432755695   -1.72750e-01   1.97679e-03 DIIS/ADIIS
   @DF-RHF iter   3: -2573.04616006738388   -6.56757e-02   5.48470e-05 DIIS
   @DF-RHF iter   4: -2573.04662706027648   -4.66993e-04   1.88611e-05 DIIS
   @DF-RHF iter   5: -2573.04670055458109   -7.34943e-05   4.80068e-06 DIIS
   @DF-RHF iter   6: -2573.04670492556488   -4.37098e-06   8.25366e-07 DIIS
   @DF-RHF iter   7: -2573.04670500852217   -8.29573e-08   2.06807e-07 DIIS
   @DF-RHF iter   8: -2573.04670501549890   -6.97673e-09   2.88709e-08 DIIS
   @DF-RHF iter   9: -2573.04670501563623   -1.37334e-10   4.45060e-09 DIIS
  Energy and wave function converged.


  ==> Post-Iterations <==

    Orbital Energies [Eh]
    ---------------------

    Doubly Occupied:                                                      

       1A   -490.039750     2A    -65.179491     3A    -58.534971  
       4A    -58.533516     5A    -58.533516     6A     -9.851933  
       7A     -7.463421     8A     -7.456727     9A     -7.456727  
      10A     -3.207252    11A     -3.203533    12A     -3.203533  
      13A     -3.194914    14A     -3.194914    15A     -1.020561  
      16A     -0.564749    17A     -0.433627    18A     -0.433627  

    Virtual:                                                              

      19A      0.019101    20A      0.042529    21A      0.042879  
      22A      0.042879    23A      0.075736    24A      0.082466  
      25A      0.088939    26A      0.088939    27A      0.122871  
      28A      0.122871    29A      0.130518    30A      0.151468  
      31A      0.173743    32A      0.179280    33A      0.179280  
      34A      0.210362    35A      0.210363    36A      0.239220  
      37A      0.239220    38A      0.262469    39A      0.273719  
      40A      0.276118    41A      0.276118    42A      0.284864  
      43A      0.301322    44A      0.301322    45A      0.302862  
      46A      0.338942    47A      0.338942    48A      0.354368  
      49A      0.385629    50A      0.397425    51A      0.397429  
      52A      0.412339    53A      0.412626    54A      0.412628  
      55A      0.454990    56A      0.462639    57A      0.462639  
      58A      0.534240    59A      0.549480    60A      0.549485  
      61A      0.564047    62A      0.567163    63A      0.567164  
      64A      0.587455    65A      0.587457    66A      0.627390  
      67A      0.627391    68A      0.630590    69A      0.630592  
      70A      0.645351    71A      0.660022    72A      0.667865  
      73A      0.709662    74A      0.714795    75A      0.714796  
      76A      0.726921    77A      0.767086    78A      0.775887  
      79A      0.790545    80A      0.790546    81A      0.836982  
      82A      0.836984    83A      0.842817    84A      0.881018  
      85A      0.881020    86A      0.890732    87A      0.892350  
      88A      0.892355    89A      0.905583    90A      0.936949  
      91A      0.936951    92A      0.973640    93A      0.991565  
      94A      0.991566    95A      1.031581    96A      1.084255  
      97A      1.084256    98A      1.101725    99A      1.101726  
     100A      1.104289   101A      1.145893   102A      1.145894  
     103A      1.193389   104A      1.244866   105A      1.244867  
     106A      1.276909   107A      1.318566   108A      1.318570  
     109A      1.382051   110A      1.382053   111A      1.386469  
     112A      1.430816   113A      1.431231   114A      1.431231  
     115A      1.461915   116A      1.461917   117A      1.463189  
     118A      1.504541   119A      1.516603   120A      1.516603  
     121A      1.522101   122A      1.570457   123A      1.570458  
     124A      1.572159   125A      1.603091   126A      1.607590  
     127A      1.617296   128A      1.628651   129A      1.628652  
     130A      1.666036   131A      1.666039   132A      1.669572  
     133A      1.708181   134A      1.708186   135A      1.773604  
     136A      1.832451   137A      1.832452   138A      1.859777  
     139A      1.859780   140A      1.864835   141A      1.872623  
     142A      1.913433   143A      1.913434   144A      1.920215  
     145A      1.926624   146A      1.926624   147A      1.968622  
     148A      1.968623   149A      2.012814   150A      2.012818  
     151A      2.020765   152A      2.045881   153A      2.054777  
     154A      2.054780   155A      2.055386   156A      2.067535  
     157A      2.131115   158A      2.163923   159A      2.163926  
     160A      2.230285   161A      2.230288   162A      2.242885  
     163A      2.247846   164A      2.256318   165A      2.256320  
     166A      2.327023   167A      2.327026   168A      2.366638  
     169A      2.370854   170A      2.409306   171A      2.409309  
     172A      2.550983   173A      2.569434   174A      2.611941  
     175A      2.611942   176A      2.631115   177A      2.682404  
     178A      2.682405   179A      2.729538   180A      2.729544  
     181A      2.830753   182A      2.905189   183A      2.976576  
     184A      2.976583   185A      3.168169   186A      3.168171  
     187A      3.170047   188A      3.180902   189A      3.180905  
     190A      3.187042   191A      3.236461   192A      3.236465  
     193A      3.295906   194A      3.295909   195A      3.302647  
     196A      3.324481   197A      3.372314   198A      3.391747  
     199A      3.416553   200A      3.420355   201A      3.437948  
     202A      3.437949   203A      3.464969   204A      3.464972  
     205A      3.513708   206A      3.513710   207A      3.522271  
     208A      3.611623   209A      3.611631   210A      3.654491  
     211A      3.654494   212A      3.667780   213A      3.667781  
     214A      3.680733   215A      3.683704   216A      3.784378  
     217A      3.784379   218A      3.824565   219A      3.824565  
     220A      3.849723   221A      3.883774   222A      3.931654  
     223A      3.937010   224A      3.937015   225A      4.002591  
     226A      4.002593   227A      4.103450   228A      4.137702  
     229A      4.137705   230A      4.178943   231A      4.227074  
     232A      4.227077   233A      4.268819   234A      4.319833  
     235A      4.319840   236A      4.376717   237A      4.377408  
     238A      4.377408   239A      4.400903   240A      4.460506  
     241A      4.460515   242A      4.537964   243A      4.537967  
     244A      4.619897   245A      4.789721   246A      4.834534  
     247A      4.834537   248A      5.074721   249A      5.074723  
     250A      5.173240   251A      5.221937   252A      5.221939  
     253A      5.344480   254A      5.554577   255A      5.554580  
     256A      5.664425   257A      5.845213   258A      5.871213  
     259A      5.914735   260A      5.914750   261A      6.011732  
     262A      6.011742   263A      6.139633   264A      6.578198  
     265A      6.578205   266A      6.587703   267A      6.774639  
     268A      6.783306   269A      7.030290   270A      7.030295  
     271A      7.123945   272A      7.254241   273A      7.254249  
     274A      7.446131   275A      7.446133   276A      7.664480  
     277A      7.793868   278A      7.793873   279A      7.795451  
     280A      8.113659   281A      8.189664   282A      8.224938  
     283A      8.224953   284A      8.374286   285A      8.374290  
     286A      8.395992   287A      8.425858   288A      8.425864  
     289A      8.527060   290A      8.527066   291A      8.535272  
     292A      8.729881   293A      8.729893   294A      8.867137  
     295A      8.867138   296A      8.923978   297A      8.954416  
     298A      8.954424   299A      9.080960   300A      9.230938  
     301A      9.255496   302A      9.255503   303A      9.342643  
     304A      9.342654   305A      9.397223   306A      9.397237  
     307A      9.490998   308A      9.510567   309A      9.640785  
     310A      9.654426   311A      9.654428   312A      9.679520  
     313A      9.842965   314A      9.842981   315A      9.880660  
     316A     10.104782   317A     10.104792   318A     10.131669  
     319A     10.255522   320A     10.255532   321A     10.467252  
     322A     10.624228   323A     10.700512   324A     10.700521  
     325A     10.868476   326A     10.868481   327A     11.018466  
     328A     11.099938   329A     11.099951   330A     11.508447  
     331A     11.631835   332A     11.631877   333A     11.709423  
     334A     12.139856   335A     12.285462   336A     12.285464  
     337A     12.593127   338A     12.593168   339A     12.878697  
     340A     13.210750   341A     13.210776   342A     13.397613  
     343A     14.016037   344A     14.543124   345A     14.543161  
     346A     14.692368   347A     14.766729   348A     14.766750  
     349A     15.668357   350A     16.128111   351A     16.128147  
     352A     16.372199   353A     18.993703   354A     20.562306  
     355A     21.894563   356A     21.894674   357A     98.248065  

    Final Occupation by Irrep:
              A 
    DOCC [    18 ]
    NA   [    18 ]
    NB   [    18 ]

  @DF-RHF Final Energy: -2573.04670501563623

   => Energetics <=

    Nuclear Repulsion Energy =             12.2315134985768310
    One-Electron Energy =               -3607.5429166426015399
    Two-Electron Energy =                1022.2646981283887726
    Total Energy =                      -2573.0467050156357800

Computation Completed


Properties will be evaluated at   0.000000,   0.000000,   0.000000 [a0]

Properties computed using the SCF density matrix


 Multipole Moments:

 ------------------------------------------------------------------------------------
     Multipole            Electronic (a.u.)      Nuclear  (a.u.)        Total (a.u.)
 ------------------------------------------------------------------------------------

 L = 1.  Multiply by 2.5417464519 to convert [e a0] to [Debye]
 Dipole X            :          0.0003450           -0.0003371            0.0000079
 Dipole Y            :        -34.1627296           33.7644801           -0.3982494
 Dipole Z            :          0.0000000            0.0000000            0.0000000
 Magnitude           :                                                    0.3982494

 ------------------------------------------------------------------------------------

*** tstop() called on cmpsrv002 at Thu Sep 26 15:26:39 2024
Module time:
	user time   =      30.23 seconds =       0.50 minutes
	system time =       3.66 seconds =       0.06 minutes
	total time  =         17 seconds =       0.28 minutes
Total time:
	user time   =      85.60 seconds =       1.43 minutes
	system time =      12.51 seconds =       0.21 minutes
	total time  =         66 seconds =       1.10 minutes

*** tstart() called on cmpsrv002
*** at Thu Sep 26 15:26:39 2024


  //>>>>>>>>>>>>>>>>>>>>>>>>>>>>>>>>>>>//
  //               DFMP2               //
  //<<<<<<<<<<<<<<<<<<<<<<<<<<<<<<<<<<<//

   => Loading Basis Set <=

    Name: (THIS_BASIS AUX)
    Role: RIFIT
    Keyword: DF_BASIS_MP2
    atoms 1, 4-6 entry H          line    30 file /home/vance/anaconda3/envs/p4env/share/psi4/basis/aug-cc-pvqz-ri.gbs 
    atoms 2      entry BR         line  1518 file /home/vance/anaconda3/envs/p4env/share/psi4/basis/aug-cc-pvqz-ri.gbs 
    atoms 3      entry N          line   258 file /home/vance/anaconda3/envs/p4env/share/psi4/basis/aug-cc-pvqz-ri.gbs 

	 --------------------------------------------------------
	                          DF-MP2                         
	      2nd-Order Density-Fitted Moller-Plesset Theory     
	              RMP2 Wavefunction,   4 Threads             
	                                                         
	        Rob Parrish, Justin Turney, Andy Simmonett,      
	           Ed Hohenstein, and C. David Sherrill          
	 --------------------------------------------------------

   => Auxiliary Basis Set <=

  Basis Set: (THIS_BASIS AUX)
    Blend: AUG-CC-PVQZ-RI
    Number of shells: 168
    Number of basis functions: 750
    Number of Cartesian functions: 1044
    Spherical Harmonics?: true
    Max angular momentum: 6

	 --------------------------------------------------------
	                 NBF =   357, NAUX =   750
	 --------------------------------------------------------
	   CLASS    FOCC     OCC    AOCC    AVIR     VIR    FVIR
	   PAIRS       0      18      18     339     339       0
	 --------------------------------------------------------

	 Will attempt to load fitting metric from file 97.

	-----------------------------------------------------------
	 ==================> DF-MP2 Energies <==================== 
	-----------------------------------------------------------
	 Reference Energy          =   -2573.0467050156362347 [Eh]
	 Singles Energy            =      -0.0000000000000000 [Eh]
	 Same-Spin Energy          =      -0.1185453842065545 [Eh]
	 Opposite-Spin Energy      =      -0.2867833758484084 [Eh]
	 Correlation Energy        =      -0.4053287600549629 [Eh]
	 Total Energy              =   -2573.4520337756912340 [Eh]
	-----------------------------------------------------------
	 ================> DF-SCS-MP2 Energies <================== 
	-----------------------------------------------------------
	 SCS Same-Spin Scale       =       0.3333333333333333 [-]
	 SCS Opposite-Spin Scale   =       1.2000000000000000 [-]
	 SCS Same-Spin Energy      =      -0.0395151280688515 [Eh]
	 SCS Opposite-Spin Energy  =      -0.3441400510180900 [Eh]
	 SCS Correlation Energy    =      -0.3836551790869415 [Eh]
	 SCS Total Energy          =   -2573.4303601947231073 [Eh]
	-----------------------------------------------------------


*** tstop() called on cmpsrv002 at Thu Sep 26 15:26:49 2024
Module time:
	user time   =      10.50 seconds =       0.17 minutes
	system time =       1.57 seconds =       0.03 minutes
	total time  =         10 seconds =       0.17 minutes
Total time:
	user time   =      96.10 seconds =       1.60 minutes
	system time =      14.08 seconds =       0.23 minutes
	total time  =         76 seconds =       1.27 minutes

  //>>>>>>>>>>>>>>>>>>>>>>>>>>>>>>>>>>>//
  //            Monomer B HF           //
  //<<<<<<<<<<<<<<<<<<<<<<<<<<<<<<<<<<<//

   => Libint2 <=

    Primary   basis highest AM E, G, H:  6, 6, 3
    Auxiliary basis highest AM E, G, H:  7, 7, 4
    Onebody   basis highest AM E, G, H:  -, -, -
    Solid Harmonics ordering:            Gaussian

*** tstart() called on cmpsrv002
*** at Thu Sep 26 15:26:49 2024

   => Loading Basis Set <=

    Name: THIS_BASIS
    Role: ORBITAL
    Keyword: BASIS
    atoms 1, 4-6 entry H          line    40 file /home/vance/anaconda3/envs/p4env/share/psi4/basis/aug-cc-pvqz.gbs 
    atoms 2      entry BR         line  5448 file /home/vance/anaconda3/envs/p4env/share/psi4/basis/aug-cc-pvqz.gbs 
    atoms 3      entry N          line   363 file /home/vance/anaconda3/envs/p4env/share/psi4/basis/aug-cc-pvqz.gbs 


         ---------------------------------------------------------
                                   SCF
               by Justin Turney, Rob Parrish, Andy Simmonett
                          and Daniel G. A. Smith
                              RHF Reference
                        4 Threads,   7629 MiB Core
         ---------------------------------------------------------

  ==> Geometry <==

    Molecular point group: c1
    Full point group: Cs

    Geometry (in Angstrom), charge = 0, multiplicity = 1:

       Center              X                  Y                   Z               Mass       
    ------------   -----------------  -----------------  -----------------  -----------------
      Gh(H)           0.000024211738    -0.975841849661     0.000000000000     1.007825032230
      Gh(BR)         -0.000005788262     0.538378150339     0.000000000000    78.918337600000
         N            0.000024211738    -2.375041849661     0.000000000000    14.003074004430
         H           -0.474345788262    -2.727501849661     0.821650000000     1.007825032230
         H           -0.474345788262    -2.727501849661    -0.821650000000     1.007825032230
         H            0.948784211738    -2.727511849661     0.000000000000     1.007825032230

  Running in c1 symmetry.

  Rotational constants: A =      6.19413  B =      0.13308  C =      0.13308 [cm^-1]
  Rotational constants: A = 185695.44928  B =   3989.52741  C =   3989.52684 [MHz]
  Nuclear repulsion =   11.945808662698695

  Charge       = 0
  Multiplicity = 1
  Electrons    = 10
  Nalpha       = 5
  Nbeta        = 5

  ==> Algorithm <==

  SCF Algorithm Type is DF.
  DIIS enabled.
  MOM disabled.
  Fractional occupation disabled.
  Guess Type is SAD.
  Energy threshold   = 1.00e-08
  Density threshold  = 1.00e-08
  Integral threshold = 1.00e-12

  ==> Primary Basis <==

  Basis Set: THIS_BASIS
    Blend: AUG-CC-PVQZ
    Number of shells: 101
    Number of basis functions: 357
    Number of Cartesian functions: 444
    Spherical Harmonics?: true
    Max angular momentum: 4

   => Loading Basis Set <=

    Name: (THIS_BASIS AUX)
    Role: JKFIT
    Keyword: DF_BASIS_SCF
    atoms 1, 4-6 entry H          line    70 file /home/vance/anaconda3/envs/p4env/share/psi4/basis/aug-cc-pvqz-jkfit.gbs 
    atoms 2      entry BR         line  1612 file /home/vance/anaconda3/envs/p4env/share/psi4/basis/aug-cc-pvqz-jkfit.gbs 
    atoms 3      entry N          line   248 file /home/vance/anaconda3/envs/p4env/share/psi4/basis/aug-cc-pvqz-jkfit.gbs 

  ==> Integral Setup <==

  ==> DiskDFJK: Density-Fitted J/K Matrices <==

    J tasked:                  Yes
    K tasked:                  Yes
    wK tasked:                  No
    OpenMP threads:              4
    Integrals threads:           4
    Memory [MiB]:             5722
    Algorithm:                Core
    Integral Cache:           LOAD
    Schwarz Cutoff:          1E-12
    Fitting Condition:       1E-10

   => Auxiliary Basis Set <=

  Basis Set: (THIS_BASIS AUX)
    Blend: AUG-CC-PVQZ-JKFIT
    Number of shells: 166
    Number of basis functions: 716
    Number of Cartesian functions: 973
    Spherical Harmonics?: true
    Max angular momentum: 5

  Minimum eigenvalue in the overlap matrix is 6.6910935724E-06.
  Reciprocal condition number of the overlap matrix is 5.3368916760E-07.
    Using symmetric orthogonalization.

  ==> Pre-Iterations <==

  SCF Guess: Superposition of Atomic Densities via on-the-fly atomic UHF (no occupation information).

   -------------------------
    Irrep   Nso     Nmo    
   -------------------------
     A        357     357 
   -------------------------
    Total     357     357
   -------------------------

  ==> Iterations <==

                           Total Energy        Delta E     RMS |[F,P]|

   @DF-RHF iter SAD:   -55.64105789455087   -5.56411e+01   0.00000e+00 
   @DF-RHF iter   1:   -56.12632262300134   -4.85265e-01   1.30911e-03 DIIS/ADIIS
   @DF-RHF iter   2:   -56.19507553577635   -6.87529e-02   7.58783e-04 DIIS/ADIIS
   @DF-RHF iter   3:   -56.22329722737527   -2.82217e-02   6.88982e-05 DIIS
   @DF-RHF iter   4:   -56.22393283319123   -6.35606e-04   1.28526e-05 DIIS
   @DF-RHF iter   5:   -56.22395393547198   -2.11023e-05   2.38362e-06 DIIS
   @DF-RHF iter   6:   -56.22395517291664   -1.23744e-06   6.32283e-07 DIIS
   @DF-RHF iter   7:   -56.22395526010338   -8.71867e-08   1.40220e-07 DIIS
   @DF-RHF iter   8:   -56.22395526463046   -4.52708e-09   2.09536e-08 DIIS
   @DF-RHF iter   9:   -56.22395526473130   -1.00840e-10   5.65949e-09 DIIS
  Energy and wave function converged.


  ==> Post-Iterations <==

    Orbital Energies [Eh]
    ---------------------

    Doubly Occupied:                                                      

       1A    -15.538881     2A     -1.139034     3A     -0.631525  
       4A     -0.631518     5A     -0.424224  

    Virtual:                                                              

       6A      0.024703     7A      0.040969     8A      0.043070  
       9A      0.043071    10A      0.081426    11A      0.081903  
      12A      0.081903    13A      0.112077    14A      0.136212  
      15A      0.136404    16A      0.136404    17A      0.152559  
      18A      0.179761    19A      0.179761    20A      0.210490  
      21A      0.210490    22A      0.248613    23A      0.262018  
      24A      0.262018    25A      0.265326    26A      0.270726  
      27A      0.270727    28A      0.282986    29A      0.287720  
      30A      0.312000    31A      0.312000    32A      0.334439  
      33A      0.341141    34A      0.341141    35A      0.349266  
      36A      0.379655    37A      0.387861    38A      0.387862  
      39A      0.416978    40A      0.416980    41A      0.451510  
      42A      0.456149    43A      0.456149    44A      0.524232  
      45A      0.541122    46A      0.541129    47A      0.556212  
      48A      0.556219    49A      0.568625    50A      0.582808  
      51A      0.649656    52A      0.671425    53A      0.671427  
      54A      0.677830    55A      0.705921    56A      0.722851  
      57A      0.723327    58A      0.723328    59A      0.737236  
      60A      0.746727    61A      0.746729    62A      0.774290  
      63A      0.774290    64A      0.775805    65A      0.780475  
      66A      0.780476    67A      0.783291    68A      0.794396  
      69A      0.794398    70A      0.795932    71A      0.855305  
      72A      0.855307    73A      0.881892    74A      0.894724  
      75A      0.894726    76A      0.920792    77A      0.920796  
      78A      0.939840    79A      0.939840    80A      0.974015  
      81A      0.977068    82A      0.977069    83A      0.983908  
      84A      1.042063    85A      1.070497    86A      1.070501  
      87A      1.116866    88A      1.116868    89A      1.129578  
      90A      1.253658    91A      1.326397    92A      1.326402  
      93A      1.335689    94A      1.372873    95A      1.400320  
      96A      1.400325    97A      1.432919    98A      1.441775  
      99A      1.441777   100A      1.479616   101A      1.481156  
     102A      1.522664   103A      1.522665   104A      1.571073  
     105A      1.571079   106A      1.583155   107A      1.599514  
     108A      1.599514   109A      1.602926   110A      1.608683  
     111A      1.608684   112A      1.629008   113A      1.643622  
     114A      1.711021   115A      1.711021   116A      1.748975  
     117A      1.748978   118A      1.773314   119A      1.793225  
     120A      1.793227   121A      1.830095   122A      1.853712  
     123A      1.880613   124A      1.880616   125A      1.897126  
     126A      1.911980   127A      1.918475   128A      1.918478  
     129A      1.927689   130A      1.934931   131A      1.934933  
     132A      1.964957   133A      1.964958   134A      2.006057  
     135A      2.006057   136A      2.012475   137A      2.037617  
     138A      2.037619   139A      2.047050   140A      2.067448  
     141A      2.067452   142A      2.074560   143A      2.091596  
     144A      2.091597   145A      2.101938   146A      2.161726  
     147A      2.161729   148A      2.162289   149A      2.250222  
     150A      2.250225   151A      2.270943   152A      2.320456  
     153A      2.324905   154A      2.407102   155A      2.407107  
     156A      2.454877   157A      2.471250   158A      2.471255  
     159A      2.549328   160A      2.588370   161A      2.608986  
     162A      2.608988   163A      2.699082   164A      2.716861  
     165A      2.716868   166A      2.765068   167A      2.812911  
     168A      2.812914   169A      2.890467   170A      2.890467  
     171A      2.933285   172A      2.965885   173A      2.965887  
     174A      3.002188   175A      3.040757   176A      3.040759  
     177A      3.068192   178A      3.164274   179A      3.164275  
     180A      3.166532   181A      3.195109   182A      3.231148  
     183A      3.231151   184A      3.232228   185A      3.312088  
     186A      3.312092   187A      3.412413   188A      3.435178  
     189A      3.435185   190A      3.495601   191A      3.495609  
     192A      3.559538   193A      3.589393   194A      3.589396  
     195A      3.723959   196A      3.733877   197A      3.864934  
     198A      3.864935   199A      3.940679   200A      3.940685  
     201A      4.032047   202A      4.032049   203A      4.077975  
     204A      4.105329   205A      4.178784   206A      4.201789  
     207A      4.201797   208A      4.241363   209A      4.285302  
     210A      4.285303   211A      4.338984   212A      4.338984  
     213A      4.343748   214A      4.381362   215A      4.383031  
     216A      4.529095   217A      4.529101   218A      4.557707  
     219A      4.661084   220A      4.661088   221A      4.682140  
     222A      4.682147   223A      4.764061   224A      4.775293  
     225A      4.775299   226A      4.856736   227A      4.883671  
     228A      4.883671   229A      4.883840   230A      4.898414  
     231A      4.948174   232A      4.948177   233A      5.017918  
     234A      5.017918   235A      5.065451   236A      5.094928  
     237A      5.094931   238A      5.260393   239A      5.267982  
     240A      5.267988   241A      5.331748   242A      5.331749  
     243A      5.387509   244A      5.387510   245A      5.487378  
     246A      5.560491   247A      5.560491   248A      5.643899  
     249A      5.891011   250A      6.115811   251A      6.115812  
     252A      6.172108   253A      6.316745   254A      6.857981  
     255A      6.880987   256A      6.985111   257A      6.985116  
     258A      7.048245   259A      7.048248   260A      7.086348  
     261A      7.120930   262A      7.449449   263A      7.463038  
     264A      7.463047   265A      7.464223   266A      7.595705  
     267A      7.595707   268A      7.704596   269A      7.776752  
     270A      7.776765   271A      7.800555   272A      7.910579  
     273A      7.910600   274A      8.074196   275A      8.074203  
     276A      8.167232   277A      8.167235   278A      8.277395  
     279A      8.336301   280A      8.336304   281A      8.391559  
     282A      8.442844   283A      8.612595   284A      8.612609  
     285A      8.658050   286A      8.797083   287A      8.797102  
     288A      8.847144   289A      8.987315   290A      9.006474  
     291A      9.010897   292A      9.010898   293A      9.029923  
     294A      9.029927   295A      9.104110   296A      9.255703  
     297A      9.255710   298A      9.264389   299A      9.386163  
     300A      9.386172   301A      9.518335   302A      9.518340  
     303A      9.571164   304A      9.571170   305A      9.763276  
     306A      9.780829   307A      9.780840   308A      9.828665  
     309A      9.859115   310A      9.859135   311A      9.944621  
     312A     10.147205   313A     10.147213   314A     10.239207  
     315A     10.239212   316A     10.268420   317A     10.448330  
     318A     10.473813   319A     10.473818   320A     10.597515  
     321A     10.597524   322A     10.901803   323A     10.974906  
     324A     11.086637   325A     11.086653   326A     11.107185  
     327A     11.107198   328A     11.207218   329A     11.931310  
     330A     11.991659   331A     12.231098   332A     12.231128  
     333A     12.571703   334A     12.601257   335A     12.601305  
     336A     13.078322   337A     13.232497   338A     13.232525  
     339A     13.480760   340A     14.702587   341A     14.702590  
     342A     14.939898   343A     15.146531   344A     15.146570  
     345A     15.552660   346A     21.294891   347A     30.131854  
     348A     30.131855   349A     30.858277   350A     30.858277  
     351A     31.112829   352A     38.191904   353A     52.057220  
     354A    139.455952   355A    139.455954   356A    139.630128  
     357A    729.420318  

    Final Occupation by Irrep:
              A 
    DOCC [     5 ]
    NA   [     5 ]
    NB   [     5 ]

  @DF-RHF Final Energy:   -56.22395526473130

   => Energetics <=

    Nuclear Repulsion Energy =             11.9458086626986955
    One-Electron Energy =                 -99.6091636605277984
    Two-Electron Energy =                  31.4393997330978010
    Total Energy =                        -56.2239552647313019

Computation Completed


Properties will be evaluated at   0.000000,   0.000000,   0.000000 [a0]

Properties computed using the SCF density matrix


 Multipole Moments:

 ------------------------------------------------------------------------------------
     Multipole            Electronic (a.u.)      Nuclear  (a.u.)        Total (a.u.)
 ------------------------------------------------------------------------------------

 L = 1.  Multiply by 2.5417464519 to convert [e a0] to [Debye]
 Dipole X            :         -0.0004924            0.0004953            0.0000029
 Dipole Y            :         46.2824797          -46.8799638           -0.5974842
 Dipole Z            :          0.0000000            0.0000000            0.0000000
 Magnitude           :                                                    0.5974842

 ------------------------------------------------------------------------------------

*** tstop() called on cmpsrv002 at Thu Sep 26 15:27:18 2024
Module time:
	user time   =      16.73 seconds =       0.28 minutes
	system time =       1.40 seconds =       0.02 minutes
	total time  =         29 seconds =       0.48 minutes
Total time:
	user time   =     112.84 seconds =       1.88 minutes
	system time =      15.48 seconds =       0.26 minutes
	total time  =        105 seconds =       1.75 minutes

*** tstart() called on cmpsrv002
*** at Thu Sep 26 15:27:18 2024


  //>>>>>>>>>>>>>>>>>>>>>>>>>>>>>>>>>>>//
  //               DFMP2               //
  //<<<<<<<<<<<<<<<<<<<<<<<<<<<<<<<<<<<//

   => Loading Basis Set <=

    Name: (THIS_BASIS AUX)
    Role: RIFIT
    Keyword: DF_BASIS_MP2
    atoms 1, 4-6 entry H          line    30 file /home/vance/anaconda3/envs/p4env/share/psi4/basis/aug-cc-pvqz-ri.gbs 
    atoms 2      entry BR         line  1518 file /home/vance/anaconda3/envs/p4env/share/psi4/basis/aug-cc-pvqz-ri.gbs 
    atoms 3      entry N          line   258 file /home/vance/anaconda3/envs/p4env/share/psi4/basis/aug-cc-pvqz-ri.gbs 

	 --------------------------------------------------------
	                          DF-MP2                         
	      2nd-Order Density-Fitted Moller-Plesset Theory     
	              RMP2 Wavefunction,   4 Threads             
	                                                         
	        Rob Parrish, Justin Turney, Andy Simmonett,      
	           Ed Hohenstein, and C. David Sherrill          
	 --------------------------------------------------------

   => Auxiliary Basis Set <=

  Basis Set: (THIS_BASIS AUX)
    Blend: AUG-CC-PVQZ-RI
    Number of shells: 168
    Number of basis functions: 750
    Number of Cartesian functions: 1044
    Spherical Harmonics?: true
    Max angular momentum: 6

	 --------------------------------------------------------
	                 NBF =   357, NAUX =   750
	 --------------------------------------------------------
	   CLASS    FOCC     OCC    AOCC    AVIR     VIR    FVIR
	   PAIRS       0       5       5     352     352       0
	 --------------------------------------------------------

	 Will attempt to load fitting metric from file 97.

	-----------------------------------------------------------
	 ==================> DF-MP2 Energies <==================== 
	-----------------------------------------------------------
	 Reference Energy          =     -56.2239552647313019 [Eh]
	 Singles Energy            =      -0.0000000000000000 [Eh]
	 Same-Spin Energy          =      -0.0594748791124792 [Eh]
	 Opposite-Spin Energy      =      -0.2253949441126014 [Eh]
	 Correlation Energy        =      -0.2848698232250805 [Eh]
	 Total Energy              =     -56.5088250879563816 [Eh]
	-----------------------------------------------------------
	 ================> DF-SCS-MP2 Energies <================== 
	-----------------------------------------------------------
	 SCS Same-Spin Scale       =       0.3333333333333333 [-]
	 SCS Opposite-Spin Scale   =       1.2000000000000000 [-]
	 SCS Same-Spin Energy      =      -0.0198249597041597 [Eh]
	 SCS Opposite-Spin Energy  =      -0.2704739329351216 [Eh]
	 SCS Correlation Energy    =      -0.2902988926392813 [Eh]
	 SCS Total Energy          =     -56.5142541573705799 [Eh]
	-----------------------------------------------------------


*** tstop() called on cmpsrv002 at Thu Sep 26 15:27:29 2024
Module time:
	user time   =       5.34 seconds =       0.09 minutes
	system time =       0.71 seconds =       0.01 minutes
	total time  =         11 seconds =       0.18 minutes
Total time:
	user time   =     118.18 seconds =       1.97 minutes
	system time =      16.19 seconds =       0.27 minutes
	total time  =        116 seconds =       1.93 minutes
  Constructing Basis Sets for SAPT...

   => Loading Basis Set <=

    Name: (THIS_BASIS AUX)
    Role: RIFIT
    Keyword: DF_BASIS_SAPT
    atoms 1, 4-6 entry H          line    30 file /home/vance/anaconda3/envs/p4env/share/psi4/basis/aug-cc-pvqz-ri.gbs 
    atoms 2      entry BR         line  1518 file /home/vance/anaconda3/envs/p4env/share/psi4/basis/aug-cc-pvqz-ri.gbs 
    atoms 3      entry N          line   258 file /home/vance/anaconda3/envs/p4env/share/psi4/basis/aug-cc-pvqz-ri.gbs 

   => Loading Basis Set <=

    Name: (THIS_BASIS AUX)
    Role: JKFIT
    Keyword: DF_BASIS_ELST
    atoms 1, 4-6 entry H          line    70 file /home/vance/anaconda3/envs/p4env/share/psi4/basis/aug-cc-pvqz-jkfit.gbs 
    atoms 2      entry BR         line  1612 file /home/vance/anaconda3/envs/p4env/share/psi4/basis/aug-cc-pvqz-jkfit.gbs 
    atoms 3      entry N          line   248 file /home/vance/anaconda3/envs/p4env/share/psi4/basis/aug-cc-pvqz-jkfit.gbs 


  //>>>>>>>>>>>>>>>>>>>>>>>>>>>>>>>>>>>//
  //             SAPT2+DMP2            //
  //<<<<<<<<<<<<<<<<<<<<<<<<<<<<<<<<<<<//


*** tstart() called on cmpsrv002
*** at Thu Sep 26 15:27:29 2024

        SAPT2+  
    Ed Hohenstein
     6 June 2009

      Orbital Information
  --------------------------
    NSO        =       357
    NMO        =       357
    NRI        =       750
    NOCC A     =        18
    NOCC B     =         5
    FOCC A     =         0
    FOCC B     =         0
    NVIR A     =       339
    NVIR B     =       352

    Estimated memory usage: 1706.9 MB

    Natural Orbital Cutoff:   1.000E-06
    Disp(T3) Truncation:            Yes
    CCD (vv|vv) Truncation:         Yes
    MBPT T2 Truncation:             Yes

    Monomer A: 225 virtual orbitals dropped
    Monomer B: 183 virtual orbitals dropped

    Elst10,r            =    -0.068863297071 [Eh]
    Exch10 (S^2)        =     0.117346341989 [Eh]
    Exch10              =     0.128257434362 [Eh]
    Ind20,r (A<-B)      =    -0.032299027730 [Eh]
    Ind20,r (B<-A)      =    -0.048600769664 [Eh]
    Ind20,r             =    -0.080899797394 [Eh]
    Exch-Ind20,r (A<-B) =     0.024559149138 [Eh]
    Exch-Ind20,r (B<-A) =     0.024240782862 [Eh]
    Exch-Ind20,r        =     0.048799932000 [Eh]
    Disp20              =    -0.027557656454 [Eh]
    Disp20 (NO)         =    -0.024491259524 [Eh]
    Exch-Disp20         =     0.005664003231 [Eh]
    Elst12,r            =     0.001967774726 [Eh]
    Exch11              =     0.005707443785 [Eh]
    Exch12              =    -0.003056472665 [Eh]
    Ind22               =    -0.003010553447 [Eh]
    Disp21              =     0.002991486142 [Eh]
    Disp22 (SDQ)        =     0.001181278575 [Eh]

    (i =   1 of   5)         38 seconds
    (i =   2 of   5)         72 seconds
    (i =   3 of   5)        105 seconds
    (i =   4 of   5)        141 seconds
