
    -----------------------------------------------------------------------
          Psi4: An Open-Source Ab Initio Electronic Structure Package
                               Psi4 1.9.1 release

                         Git: Rev {} zzzzzzz 


    D. G. A. Smith, L. A. Burns, A. C. Simmonett, R. M. Parrish,
    M. C. Schieber, R. Galvelis, P. Kraus, H. Kruse, R. Di Remigio,
    A. Alenaizan, A. M. James, S. Lehtola, J. P. Misiewicz, M. Scheurer,
    R. A. Shaw, J. B. Schriber, Y. Xie, Z. L. Glick, D. A. Sirianni,
    J. S. O'Brien, J. M. Waldrop, A. Kumar, E. G. Hohenstein,
    B. P. Pritchard, B. R. Brooks, H. F. Schaefer III, A. Yu. Sokolov,
    K. Patkowski, A. E. DePrince III, U. Bozkaya, R. A. King,
    F. A. Evangelista, J. M. Turney, T. D. Crawford, C. D. Sherrill,
    J. Chem. Phys. 152(18) 184108 (2020). https://doi.org/10.1063/5.0006002

                            Additional Code Authors
    E. T. Seidl, C. L. Janssen, E. F. Valeev, M. L. Leininger,
    J. F. Gonthier, R. M. Richard, H. R. McAlexander, M. Saitow, X. Wang,
    P. Verma, M. H. Lechner, A. Jiang, S. Behnle, A. G. Heide,
    M. F. Herbst, and D. L. Poole

             Previous Authors, Complete List of Code Contributors,
                       and Citations for Specific Modules
    https://github.com/psi4/psi4/blob/master/codemeta.json
    https://github.com/psi4/psi4/graphs/contributors
    http://psicode.org/psi4manual/master/introduction.html#citing-psifour

    -----------------------------------------------------------------------


    Psi4 started on: Thursday, 26 September 2024 03:25PM

    Process ID: 636592
    Host:       cmpsrv002
    PSIDATADIR: /home/vance/anaconda3/envs/p4env/share/psi4
    Memory:     500.0 MiB
    Threads:    8
    
  ==> Input File <==

--------------------------------------------------------------------------
#charge=0 charge_a=0 charge_b=0 selection_a=1-2 selection_b=3-6 scaling=0.9 benchmark_Eint=-9.272 benchmark_unit=kcal/mol group=XH-N
set_num_threads(4)
memory 8 GB
basis this_basis {
    assign    aug-cc-pVQZ
}

molecule {
     0 1
    --
     0 1
     H        0.00002       -0.93248        0.00000
    Br       -0.00001        0.58174        0.00000
    --
     0 1
     N        0.00003       -2.41398        0.00000
     H       -0.47435       -2.76645        0.82165
     H       -0.47435       -2.76645       -0.82165
     H        0.94878       -2.76645        0.00000
}

set {
    scf_type                DF
    freeze_core             false
    do_ind_exch_sinf        true
    do_disp_exch_sinf       true
}

nrg = energy('sapt2+dmp2')
--------------------------------------------------------------------------
  Threads set to 4 by Python driver.

  Memory set to   7.451 GiB by Python driver.

Scratch directory: /scratch2/vance/psi4/
  SAPT does not make use of molecular symmetry, further calculations in C1 point group.
   => Loading Basis Set <=

    Name: THIS_BASIS
    Role: ORBITAL
    Keyword: BASIS
    atoms 1, 4-6 entry H          line    40 file /home/vance/anaconda3/envs/p4env/share/psi4/basis/aug-cc-pvqz.gbs 
    atoms 2      entry BR         line  5448 file /home/vance/anaconda3/envs/p4env/share/psi4/basis/aug-cc-pvqz.gbs 
    atoms 3      entry N          line   363 file /home/vance/anaconda3/envs/p4env/share/psi4/basis/aug-cc-pvqz.gbs 

   => Loading Basis Set <=

    Name: THIS_BASIS
    Role: ORBITAL
    Keyword: BASIS
    atoms 1, 4-6 entry H          line    40 file /home/vance/anaconda3/envs/p4env/share/psi4/basis/aug-cc-pvqz.gbs 
    atoms 2      entry BR         line  5448 file /home/vance/anaconda3/envs/p4env/share/psi4/basis/aug-cc-pvqz.gbs 
    atoms 3      entry N          line   363 file /home/vance/anaconda3/envs/p4env/share/psi4/basis/aug-cc-pvqz.gbs 


  //>>>>>>>>>>>>>>>>>>>>>>>>>>>>>>>>>>>//
  //              Dimer HF             //
  //<<<<<<<<<<<<<<<<<<<<<<<<<<<<<<<<<<<//

   => Libint2 <=

    Primary   basis highest AM E, G, H:  6, 6, 3
    Auxiliary basis highest AM E, G, H:  7, 7, 4
    Onebody   basis highest AM E, G, H:  -, -, -
    Solid Harmonics ordering:            Gaussian

*** tstart() called on cmpsrv002
*** at Thu Sep 26 15:25:33 2024

   => Loading Basis Set <=

    Name: THIS_BASIS
    Role: ORBITAL
    Keyword: BASIS
    atoms 1, 4-6 entry H          line    40 file /home/vance/anaconda3/envs/p4env/share/psi4/basis/aug-cc-pvqz.gbs 
    atoms 2      entry BR         line  5448 file /home/vance/anaconda3/envs/p4env/share/psi4/basis/aug-cc-pvqz.gbs 
    atoms 3      entry N          line   363 file /home/vance/anaconda3/envs/p4env/share/psi4/basis/aug-cc-pvqz.gbs 


         ---------------------------------------------------------
                                   SCF
               by Justin Turney, Rob Parrish, Andy Simmonett
                          and Daniel G. A. Smith
                              RHF Reference
                        4 Threads,   7629 MiB Core
         ---------------------------------------------------------

  ==> Geometry <==

    Molecular point group: c1
    Full point group: Cs

    Geometry (in Angstrom), charge = 0, multiplicity = 1:

       Center              X                  Y                   Z               Mass       
    ------------   -----------------  -----------------  -----------------  -----------------
         H            0.000022767418    -0.961388358650     0.000000000000     1.007825032230
         BR          -0.000007232582     0.552831641350     0.000000000000    78.918337600000
         N            0.000032767418    -2.442888358650     0.000000000000    14.003074004430
         H           -0.474347232582    -2.795358358650     0.821650000000     1.007825032230
         H           -0.474347232582    -2.795358358650    -0.821650000000     1.007825032230
         H            0.948782767418    -2.795358358650     0.000000000000     1.007825032230

  Running in c1 symmetry.

  Rotational constants: A =      6.19413  B =      0.12618  C =      0.12618 [cm^-1]
  Rotational constants: A = 185695.44926  B =   3782.68572  C =   3782.68521 [MHz]
  Nuclear repulsion =   86.690826008685008

  Charge       = 0
  Multiplicity = 1
  Electrons    = 46
  Nalpha       = 23
  Nbeta        = 23

  ==> Algorithm <==

  SCF Algorithm Type is DF.
  DIIS enabled.
  MOM disabled.
  Fractional occupation disabled.
  Guess Type is SAD.
  Energy threshold   = 1.00e-08
  Density threshold  = 1.00e-08
  Integral threshold = 1.00e-12

  ==> Primary Basis <==

  Basis Set: THIS_BASIS
    Blend: AUG-CC-PVQZ
    Number of shells: 101
    Number of basis functions: 357
    Number of Cartesian functions: 444
    Spherical Harmonics?: true
    Max angular momentum: 4

   => Loading Basis Set <=

    Name: (THIS_BASIS AUX)
    Role: JKFIT
    Keyword: DF_BASIS_SCF
    atoms 1, 4-6 entry H          line    70 file /home/vance/anaconda3/envs/p4env/share/psi4/basis/aug-cc-pvqz-jkfit.gbs 
    atoms 2      entry BR         line  1612 file /home/vance/anaconda3/envs/p4env/share/psi4/basis/aug-cc-pvqz-jkfit.gbs 
    atoms 3      entry N          line   248 file /home/vance/anaconda3/envs/p4env/share/psi4/basis/aug-cc-pvqz-jkfit.gbs 

  ==> Integral Setup <==

  ==> DiskDFJK: Density-Fitted J/K Matrices <==

    J tasked:                  Yes
    K tasked:                  Yes
    wK tasked:                  No
    OpenMP threads:              4
    Integrals threads:           4
    Memory [MiB]:             5722
    Algorithm:                Core
    Integral Cache:           SAVE
    Schwarz Cutoff:          1E-12
    Fitting Condition:       1E-10

   => Auxiliary Basis Set <=

  Basis Set: (THIS_BASIS AUX)
    Blend: AUG-CC-PVQZ-JKFIT
    Number of shells: 166
    Number of basis functions: 716
    Number of Cartesian functions: 973
    Spherical Harmonics?: true
    Max angular momentum: 5

  Minimum eigenvalue in the overlap matrix is 7.7455407705E-06.
  Reciprocal condition number of the overlap matrix is 6.2524867089E-07.
    Using symmetric orthogonalization.

  ==> Pre-Iterations <==

  SCF Guess: Superposition of Atomic Densities via on-the-fly atomic UHF (no occupation information).

   -------------------------
    Irrep   Nso     Nmo    
   -------------------------
     A        357     357 
   -------------------------
    Total     357     357
   -------------------------

  ==> Iterations <==

                           Total Energy        Delta E     RMS |[F,P]|

   @DF-RHF iter SAD: -2627.06661925774279   -2.62707e+03   0.00000e+00 
   @DF-RHF iter   1: -2628.97019188966351   -1.90357e+00   3.68939e-03 DIIS/ADIIS
   @DF-RHF iter   2: -2629.20155688576779   -2.31365e-01   2.06009e-03 DIIS/ADIIS
   @DF-RHF iter   3: -2629.27550377565149   -7.39469e-02   8.52436e-05 DIIS
   @DF-RHF iter   4: -2629.27635335312834   -8.49577e-04   2.40414e-05 DIIS
   @DF-RHF iter   5: -2629.27642968683494   -7.63337e-05   7.18196e-06 DIIS
   @DF-RHF iter   6: -2629.27643665101004   -6.96418e-06   2.60982e-06 DIIS
   @DF-RHF iter   7: -2629.27643736323171   -7.12222e-07   6.51204e-07 DIIS
   @DF-RHF iter   8: -2629.27643744903708   -8.58054e-08   2.17428e-07 DIIS
   @DF-RHF iter   9: -2629.27643745565683   -6.61976e-09   4.33692e-08 DIIS
   @DF-RHF iter  10: -2629.27643745598334   -3.26509e-10   7.11091e-09 DIIS
  Energy and wave function converged.


  ==> Post-Iterations <==

    Orbital Energies [Eh]
    ---------------------

    Doubly Occupied:                                                      

       1A   -489.961660     2A    -65.102903     3A    -58.457747  
       4A    -58.457225     5A    -58.457225     6A    -15.610110  
       7A     -9.776503     8A     -7.386173     9A     -7.382867  
      10A     -7.382867    11A     -3.128741    12A     -3.126718  
      13A     -3.126718    14A     -3.122813    15A     -3.122813  
      16A     -1.219108    17A     -0.963720    18A     -0.702266  
      19A     -0.702264    20A     -0.616196    21A     -0.409178  
      22A     -0.375936    23A     -0.375936  

    Virtual:                                                              

      24A      0.012311    25A      0.035519    26A      0.035519  
      27A      0.049434    28A      0.090759    29A      0.099624  
      30A      0.099624    31A      0.102406    32A      0.122880  
      33A      0.122880    34A      0.138465    35A      0.158714  
      36A      0.158715    37A      0.165140    38A      0.190076  
      39A      0.190076    40A      0.248338    41A      0.255123  
      42A      0.255123    43A      0.259937    44A      0.266112  
      45A      0.297504    46A      0.297504    47A      0.303191  
      48A      0.303837    49A      0.303837    50A      0.321854  
      51A      0.348766    52A      0.348767    53A      0.364087  
      54A      0.364087    55A      0.379993    56A      0.396130  
      57A      0.404157    58A      0.404158    59A      0.419352  
      60A      0.432416    61A      0.432417    62A      0.440260  
      63A      0.510966    64A      0.510969    65A      0.531039  
      66A      0.531042    67A      0.561527    68A      0.600945  
      69A      0.600945    70A      0.608404    71A      0.619789  
      72A      0.619790    73A      0.657299    74A      0.678047  
      75A      0.686944    76A      0.696716    77A      0.696717  
      78A      0.711468    79A      0.711470    80A      0.712364  
      81A      0.742611    82A      0.742612    83A      0.748790  
      84A      0.749408    85A      0.781332    86A      0.790354  
      87A      0.790355    88A      0.851889    89A      0.853779  
      90A      0.853780    91A      0.879452    92A      0.879456  
      93A      0.884167    94A      0.884168    95A      0.894210  
      96A      0.925490    97A      0.931374    98A      0.931375  
      99A      0.944652   100A      1.008064   101A      1.008066  
     102A      1.043623   103A      1.043626   104A      1.111810  
     105A      1.126395   106A      1.141656   107A      1.141657  
     108A      1.267246   109A      1.267249   110A      1.299823  
     111A      1.306822   112A      1.306824   113A      1.324968  
     114A      1.358295   115A      1.394552   116A      1.394553  
     117A      1.399623   118A      1.399623   119A      1.420985  
     120A      1.426563   121A      1.496495   122A      1.496496  
     123A      1.521849   124A      1.524680   125A      1.524683  
     126A      1.539634   127A      1.548860   128A      1.556165  
     129A      1.556165   130A      1.561856   131A      1.561860  
     132A      1.580850   133A      1.631301   134A      1.631306  
     135A      1.648495   136A      1.660351   137A      1.683137  
     138A      1.683138   139A      1.685086   140A      1.714054  
     141A      1.714056   142A      1.738442   143A      1.738444  
     144A      1.808356   145A      1.811037   146A      1.835793  
     147A      1.855138   148A      1.855139   149A      1.879060  
     150A      1.879060   151A      1.942228   152A      1.942232  
     153A      1.965106   154A      1.965106   155A      1.985140  
     156A      1.985142   157A      1.997524   158A      1.999084  
     159A      2.033893   160A      2.048113   161A      2.056346  
     162A      2.056347   163A      2.062906   164A      2.150421  
     165A      2.164069   166A      2.164069   167A      2.189591  
     168A      2.221275   169A      2.221276   170A      2.306697  
     171A      2.309016   172A      2.309019   173A      2.373910  
     174A      2.456626   175A      2.488158   176A      2.488159  
     177A      2.495108   178A      2.569682   179A      2.569687  
     180A      2.613615   181A      2.627093   182A      2.627096  
     183A      2.671666   184A      2.671667   185A      2.690811  
     186A      2.874364   187A      2.885323   188A      2.885326  
     189A      2.936129   190A      2.936134   191A      2.941722  
     192A      3.012394   193A      3.012395   194A      3.070021  
     195A      3.103329   196A      3.103333   197A      3.108159  
     198A      3.114922   199A      3.130946   200A      3.130947  
     201A      3.236541   202A      3.236542   203A      3.250870  
     204A      3.355159   205A      3.355163   206A      3.385897  
     207A      3.423589   208A      3.423593   209A      3.451043  
     210A      3.471188   211A      3.494989   212A      3.522172  
     213A      3.522175   214A      3.571969   215A      3.571970  
     216A      3.588665   217A      3.660698   218A      3.690005  
     219A      3.690006   220A      3.713249   221A      3.713256  
     222A      3.721967   223A      3.721968   224A      3.734955  
     225A      3.736040   226A      3.864092   227A      3.864095  
     228A      3.871510   229A      3.871510   230A      3.884537  
     231A      4.004696   232A      4.040439   233A      4.040443  
     234A      4.095728   235A      4.163473   236A      4.163479  
     237A      4.180059   238A      4.211636   239A      4.246397  
     240A      4.246398   241A      4.261919   242A      4.261919  
     243A      4.267182   244A      4.328098   245A      4.328100  
     246A      4.470583   247A      4.622785   248A      4.622785  
     249A      4.639715   250A      4.687410   251A      4.687417  
     252A      4.833567   253A      4.833568   254A      4.967242  
     255A      4.967250   256A      4.979882   257A      5.138162  
     258A      5.138170   259A      5.259481   260A      5.283479  
     261A      5.283479   262A      5.403651   263A      5.417620  
     264A      5.517712   265A      5.517719   266A      5.639904  
     267A      5.916626   268A      6.736997   269A      6.743325  
     270A      6.832826   271A      6.832831   272A      6.849365  
     273A      6.962457   274A      6.962467   275A      7.201542  
     276A      7.201545   277A      7.329925   278A      7.359940  
     279A      7.361912   280A      7.361919   281A      7.560294  
     282A      7.560306   283A      7.641062   284A      7.693573  
     285A      7.815358   286A      7.827244   287A      7.827247  
     288A      7.947377   289A      7.947385   290A      8.028332  
     291A      8.028336   292A      8.084600   293A      8.204669  
     294A      8.204673   295A      8.324754   296A      8.420155  
     297A      8.420171   298A      8.537539   299A      8.593710  
     300A      8.593716   301A      8.716269   302A      8.740405  
     303A      8.740411   304A      8.901295   305A      8.901303  
     306A      8.917671   307A      8.927481   308A      8.927486  
     309A      8.929675   310A      8.971382   311A      8.971385  
     312A      9.028022   313A      9.076522   314A      9.141642  
     315A      9.141644   316A      9.204058   317A      9.316468  
     318A      9.316477   319A      9.504488   320A      9.504491  
     321A      9.679921   322A      9.692359   323A      9.714155  
     324A      9.714162   325A      9.763445   326A      9.763450  
     327A      9.828842   328A      9.954956   329A      9.954957  
     330A      9.991646   331A     10.184732   332A     10.184738  
     333A     10.347404   334A     10.477104   335A     10.513748  
     336A     10.513751   337A     10.802631   338A     10.802633  
     339A     10.824995   340A     11.013815   341A     11.013830  
     342A     11.281313   343A     11.735842   344A     11.975163  
     345A     12.158398   346A     12.158435   347A     12.440476  
     348A     12.470185   349A     12.470235   350A     13.011169  
     351A     13.141950   352A     13.141979   353A     15.067641  
     354A     15.067703   355A     15.199581   356A     15.541495  
     357A     37.700609  

    Final Occupation by Irrep:
              A 
    DOCC [    23 ]
    NA   [    23 ]
    NB   [    23 ]

  @DF-RHF Final Energy: -2629.27643745598334

   => Energetics <=

    Nuclear Repulsion Energy =             86.6908260086850078
    One-Electron Energy =               -3833.9991535093686252
    Two-Electron Energy =                1118.0318900447002761
    Total Energy =                      -2629.2764374559837961

Computation Completed


Properties will be evaluated at   0.000000,   0.000000,   0.000000 [a0]

Properties computed using the SCF density matrix


 Multipole Moments:

 ------------------------------------------------------------------------------------
     Multipole            Electronic (a.u.)      Nuclear  (a.u.)        Total (a.u.)
 ------------------------------------------------------------------------------------

 L = 1.  Multiply by 2.5417464519 to convert [e a0] to [Debye]
 Dipole X            :         -0.0001411            0.0001650            0.0000239
 Dipole Y            :         11.1247545          -13.4143617           -2.2896071
 Dipole Z            :         -0.0000000            0.0000000           -0.0000000
 Magnitude           :                                                    2.2896071

 ------------------------------------------------------------------------------------

*** tstop() called on cmpsrv002 at Thu Sep 26 15:25:57 2024
Module time:
	user time   =      34.20 seconds =       0.57 minutes
	system time =       6.04 seconds =       0.10 minutes
	total time  =         24 seconds =       0.40 minutes
Total time:
	user time   =      34.20 seconds =       0.57 minutes
	system time =       6.04 seconds =       0.10 minutes
	total time  =         24 seconds =       0.40 minutes

*** tstart() called on cmpsrv002
*** at Thu Sep 26 15:25:57 2024


  //>>>>>>>>>>>>>>>>>>>>>>>>>>>>>>>>>>>//
  //               DFMP2               //
  //<<<<<<<<<<<<<<<<<<<<<<<<<<<<<<<<<<<//

   => Loading Basis Set <=

    Name: (THIS_BASIS AUX)
    Role: RIFIT
    Keyword: DF_BASIS_MP2
    atoms 1, 4-6 entry H          line    30 file /home/vance/anaconda3/envs/p4env/share/psi4/basis/aug-cc-pvqz-ri.gbs 
    atoms 2      entry BR         line  1518 file /home/vance/anaconda3/envs/p4env/share/psi4/basis/aug-cc-pvqz-ri.gbs 
    atoms 3      entry N          line   258 file /home/vance/anaconda3/envs/p4env/share/psi4/basis/aug-cc-pvqz-ri.gbs 

	 --------------------------------------------------------
	                          DF-MP2                         
	      2nd-Order Density-Fitted Moller-Plesset Theory     
	              RMP2 Wavefunction,   4 Threads             
	                                                         
	        Rob Parrish, Justin Turney, Andy Simmonett,      
	           Ed Hohenstein, and C. David Sherrill          
	 --------------------------------------------------------

   => Auxiliary Basis Set <=

  Basis Set: (THIS_BASIS AUX)
    Blend: AUG-CC-PVQZ-RI
    Number of shells: 168
    Number of basis functions: 750
    Number of Cartesian functions: 1044
    Spherical Harmonics?: true
    Max angular momentum: 6

	 --------------------------------------------------------
	                 NBF =   357, NAUX =   750
	 --------------------------------------------------------
	   CLASS    FOCC     OCC    AOCC    AVIR     VIR    FVIR
	   PAIRS       0      23      23     334     334       0
	 --------------------------------------------------------

	 Will save fitting metric to file 97.

	-----------------------------------------------------------
	 ==================> DF-MP2 Energies <==================== 
	-----------------------------------------------------------
	 Reference Energy          =   -2629.2764374559833414 [Eh]
	 Singles Energy            =      -0.0000000000000000 [Eh]
	 Same-Spin Energy          =      -0.1849844004954802 [Eh]
	 Opposite-Spin Energy      =      -0.5158178997525705 [Eh]
	 Correlation Energy        =      -0.7008023002480507 [Eh]
	 Total Energy              =   -2629.9772397562314836 [Eh]
	-----------------------------------------------------------
	 ================> DF-SCS-MP2 Energies <================== 
	-----------------------------------------------------------
	 SCS Same-Spin Scale       =       0.3333333333333333 [-]
	 SCS Opposite-Spin Scale   =       1.2000000000000000 [-]
	 SCS Same-Spin Energy      =      -0.0616614668318267 [Eh]
	 SCS Opposite-Spin Energy  =      -0.6189814797030846 [Eh]
	 SCS Correlation Energy    =      -0.6806429465349113 [Eh]
	 SCS Total Energy          =   -2629.9570804025183861 [Eh]
	-----------------------------------------------------------


*** tstop() called on cmpsrv002 at Thu Sep 26 15:26:06 2024
Module time:
	user time   =      12.19 seconds =       0.20 minutes
	system time =       2.14 seconds =       0.04 minutes
	total time  =          9 seconds =       0.15 minutes
Total time:
	user time   =      46.39 seconds =       0.77 minutes
	system time =       8.18 seconds =       0.14 minutes
	total time  =         33 seconds =       0.55 minutes

  //>>>>>>>>>>>>>>>>>>>>>>>>>>>>>>>>>>>//
  //            Monomer A HF           //
  //<<<<<<<<<<<<<<<<<<<<<<<<<<<<<<<<<<<//

   => Libint2 <=

    Primary   basis highest AM E, G, H:  6, 6, 3
    Auxiliary basis highest AM E, G, H:  7, 7, 4
    Onebody   basis highest AM E, G, H:  -, -, -
    Solid Harmonics ordering:            Gaussian

*** tstart() called on cmpsrv002
*** at Thu Sep 26 15:26:06 2024

   => Loading Basis Set <=

    Name: THIS_BASIS
    Role: ORBITAL
    Keyword: BASIS
    atoms 1, 4-6 entry H          line    40 file /home/vance/anaconda3/envs/p4env/share/psi4/basis/aug-cc-pvqz.gbs 
    atoms 2      entry BR         line  5448 file /home/vance/anaconda3/envs/p4env/share/psi4/basis/aug-cc-pvqz.gbs 
    atoms 3      entry N          line   363 file /home/vance/anaconda3/envs/p4env/share/psi4/basis/aug-cc-pvqz.gbs 


         ---------------------------------------------------------
                                   SCF
               by Justin Turney, Rob Parrish, Andy Simmonett
                          and Daniel G. A. Smith
                              RHF Reference
                        4 Threads,   7629 MiB Core
         ---------------------------------------------------------

  ==> Geometry <==

    Molecular point group: c1
    Full point group: Cs

    Geometry (in Angstrom), charge = 0, multiplicity = 1:

       Center              X                  Y                   Z               Mass       
    ------------   -----------------  -----------------  -----------------  -----------------
         H            0.000022767418    -0.961388358650     0.000000000000     1.007825032230
         BR          -0.000007232582     0.552831641350     0.000000000000    78.918337600000
      Gh(N)           0.000032767418    -2.442888358650     0.000000000000    14.003074004430
      Gh(H)          -0.474347232582    -2.795358358650     0.821650000000     1.007825032230
      Gh(H)          -0.474347232582    -2.795358358650    -0.821650000000     1.007825032230
      Gh(H)           0.948782767418    -2.795358358650     0.000000000000     1.007825032230

  Running in c1 symmetry.

  Rotational constants: A =      6.19413  B =      0.12618  C =      0.12618 [cm^-1]
  Rotational constants: A = 185695.44926  B =   3782.68572  C =   3782.68521 [MHz]
  Nuclear repulsion =   12.231513498576831

  Charge       = 0
  Multiplicity = 1
  Electrons    = 36
  Nalpha       = 18
  Nbeta        = 18

  ==> Algorithm <==

  SCF Algorithm Type is DF.
  DIIS enabled.
  MOM disabled.
  Fractional occupation disabled.
  Guess Type is SAD.
  Energy threshold   = 1.00e-08
  Density threshold  = 1.00e-08
  Integral threshold = 1.00e-12

  ==> Primary Basis <==

  Basis Set: THIS_BASIS
    Blend: AUG-CC-PVQZ
    Number of shells: 101
    Number of basis functions: 357
    Number of Cartesian functions: 444
    Spherical Harmonics?: true
    Max angular momentum: 4

   => Loading Basis Set <=

    Name: (THIS_BASIS AUX)
    Role: JKFIT
    Keyword: DF_BASIS_SCF
    atoms 1, 4-6 entry H          line    70 file /home/vance/anaconda3/envs/p4env/share/psi4/basis/aug-cc-pvqz-jkfit.gbs 
    atoms 2      entry BR         line  1612 file /home/vance/anaconda3/envs/p4env/share/psi4/basis/aug-cc-pvqz-jkfit.gbs 
    atoms 3      entry N          line   248 file /home/vance/anaconda3/envs/p4env/share/psi4/basis/aug-cc-pvqz-jkfit.gbs 

  ==> Integral Setup <==

  ==> DiskDFJK: Density-Fitted J/K Matrices <==

    J tasked:                  Yes
    K tasked:                  Yes
    wK tasked:                  No
    OpenMP threads:              4
    Integrals threads:           4
    Memory [MiB]:             5722
    Algorithm:                Core
    Integral Cache:           LOAD
    Schwarz Cutoff:          1E-12
    Fitting Condition:       1E-10

   => Auxiliary Basis Set <=

  Basis Set: (THIS_BASIS AUX)
    Blend: AUG-CC-PVQZ-JKFIT
    Number of shells: 166
    Number of basis functions: 716
    Number of Cartesian functions: 973
    Spherical Harmonics?: true
    Max angular momentum: 5

  Minimum eigenvalue in the overlap matrix is 7.7455407705E-06.
  Reciprocal condition number of the overlap matrix is 6.2524867089E-07.
    Using symmetric orthogonalization.

  ==> Pre-Iterations <==

  SCF Guess: Superposition of Atomic Densities via on-the-fly atomic UHF (no occupation information).

   -------------------------
    Irrep   Nso     Nmo    
   -------------------------
     A        357     357 
   -------------------------
    Total     357     357
   -------------------------

  ==> Iterations <==

                           Total Energy        Delta E     RMS |[F,P]|

   @DF-RHF iter SAD: -2571.14384276782857   -2.57114e+03   0.00000e+00 
   @DF-RHF iter   1: -2572.80785119486291   -1.66401e+00   3.48886e-03 DIIS/ADIIS
   @DF-RHF iter   2: -2572.98056681496610   -1.72716e-01   1.97423e-03 DIIS/ADIIS
   @DF-RHF iter   3: -2573.04615905063702   -6.55922e-02   5.48036e-05 DIIS
   @DF-RHF iter   4: -2573.04662592934528   -4.66879e-04   1.88469e-05 DIIS
   @DF-RHF iter   5: -2573.04669939529640   -7.34660e-05   4.79353e-06 DIIS
   @DF-RHF iter   6: -2573.04670375115165   -4.35586e-06   8.28442e-07 DIIS
   @DF-RHF iter   7: -2573.04670383451958   -8.33679e-08   2.06796e-07 DIIS
   @DF-RHF iter   8: -2573.04670384151859   -6.99902e-09   2.88186e-08 DIIS
   @DF-RHF iter   9: -2573.04670384166047   -1.41881e-10   4.44567e-09 DIIS
  Energy and wave function converged.


  ==> Post-Iterations <==

    Orbital Energies [Eh]
    ---------------------

    Doubly Occupied:                                                      

       1A   -490.039748     2A    -65.179490     3A    -58.534970  
       4A    -58.533515     5A    -58.533515     6A     -9.851933  
       7A     -7.463421     8A     -7.456727     9A     -7.456727  
      10A     -3.207251    11A     -3.203533    12A     -3.203533  
      13A     -3.194913    14A     -3.194913    15A     -1.020562  
      16A     -0.564750    17A     -0.433627    18A     -0.433627  

    Virtual:                                                              

      19A      0.019017    20A      0.042430    21A      0.042788  
      22A      0.042788    23A      0.075898    24A      0.082253  
      25A      0.088908    26A      0.088908    27A      0.122663  
      28A      0.122663    29A      0.129269    30A      0.151089  
      31A      0.173173    32A      0.179448    33A      0.179448  
      34A      0.208818    35A      0.208818    36A      0.238122  
      37A      0.238122    38A      0.261472    39A      0.274210  
      40A      0.276814    41A      0.276815    42A      0.284807  
      43A      0.299678    44A      0.299678    45A      0.300919  
      46A      0.339176    47A      0.339176    48A      0.351937  
      49A      0.384093    50A      0.396979    51A      0.396982  
      52A      0.410176    53A      0.411436    54A      0.411437  
      55A      0.456233    56A      0.460314    57A      0.460314  
      58A      0.534377    59A      0.546767    60A      0.546769  
      61A      0.566816    62A      0.568381    63A      0.568382  
      64A      0.588700    65A      0.588701    66A      0.625889  
      67A      0.625889    68A      0.629843    69A      0.629843  
      70A      0.646239    71A      0.654310    72A      0.665943  
      73A      0.708308    74A      0.708309    75A      0.709652  
      76A      0.727351    77A      0.764119    78A      0.771634  
      79A      0.784697    80A      0.784698    81A      0.837571  
      82A      0.837572    83A      0.842774    84A      0.880315  
      85A      0.880316    86A      0.886053    87A      0.886057  
      88A      0.890827    89A      0.906684    90A      0.942291  
      91A      0.942292    92A      0.965276    93A      0.989031  
      94A      0.989032    95A      1.043591    96A      1.086539  
      97A      1.086539    98A      1.090685    99A      1.090686  
     100A      1.093161   101A      1.137638   102A      1.137639  
     103A      1.180798   104A      1.246606   105A      1.246606  
     106A      1.268393   107A      1.309287   108A      1.309289  
     109A      1.378098   110A      1.378099   111A      1.385939  
     112A      1.421274   113A      1.430143   114A      1.430143  
     115A      1.457090   116A      1.457092   117A      1.467934  
     118A      1.504091   119A      1.514127   120A      1.515994  
     121A      1.515994   122A      1.550502   123A      1.564618  
     124A      1.564619   125A      1.594684   126A      1.604923  
     127A      1.615375   128A      1.625359   129A      1.625360  
     130A      1.651681   131A      1.661340   132A      1.661340  
     133A      1.693074   134A      1.693076   135A      1.762216  
     136A      1.819956   137A      1.819957   138A      1.855769  
     139A      1.855770   140A      1.856999   141A      1.862707  
     142A      1.904709   143A      1.904712   144A      1.921100  
     145A      1.937300   146A      1.937301   147A      1.957274  
     148A      1.957276   149A      2.011825   150A      2.045257  
     151A      2.045257   152A      2.052822   153A      2.052825  
     154A      2.053760   155A      2.059014   156A      2.061478  
     157A      2.118516   158A      2.140586   159A      2.140587  
     160A      2.218470   161A      2.218471   162A      2.219845  
     163A      2.229098   164A      2.231131   165A      2.231133  
     166A      2.321397   167A      2.321397   168A      2.336796  
     169A      2.354938   170A      2.411476   171A      2.411481  
     172A      2.532720   173A      2.539942   174A      2.623053  
     175A      2.623055   176A      2.645741   177A      2.662002  
     178A      2.662004   179A      2.687274   180A      2.687275  
     181A      2.819833   182A      2.878609   183A      2.944725  
     184A      2.944725   185A      3.144488   186A      3.155186  
     187A      3.155187   188A      3.179903   189A      3.179904  
     190A      3.191191   191A      3.206170   192A      3.206171  
     193A      3.290363   194A      3.290363   195A      3.305839  
     196A      3.321326   197A      3.342658   198A      3.366525  
     199A      3.414743   200A      3.415462   201A      3.438109  
     202A      3.438109   203A      3.457060   204A      3.457061  
     205A      3.494595   206A      3.505856   207A      3.505857  
     208A      3.578805   209A      3.578809   210A      3.664424  
     211A      3.664426   212A      3.673180   213A      3.673184  
     214A      3.674759   215A      3.678791   216A      3.761834  
     217A      3.761836   218A      3.814072   219A      3.814072  
     220A      3.837974   221A      3.855771   222A      3.881914  
     223A      3.920045   224A      3.920050   225A      3.987112  
     226A      3.987114   227A      4.101020   228A      4.101025  
     229A      4.105072   230A      4.170412   231A      4.193948  
     232A      4.193951   233A      4.276210   234A      4.276213  
     235A      4.308848   236A      4.358479   237A      4.358480  
     238A      4.373436   239A      4.384860   240A      4.430853  
     241A      4.430856   242A      4.567659   243A      4.567664  
     244A      4.596642   245A      4.706729   246A      4.772624  
     247A      4.772625   248A      5.003301   249A      5.003308  
     250A      5.143118   251A      5.202433   252A      5.202443  
     253A      5.313370   254A      5.543494   255A      5.543505  
     256A      5.665951   257A      5.784121   258A      5.845577  
     259A      5.884474   260A      5.884480   261A      5.985962  
     262A      5.985973   263A      6.146654   264A      6.571250  
     265A      6.583676   266A      6.583693   267A      6.734765  
     268A      6.750425   269A      7.027316   270A      7.027323  
     271A      7.114045   272A      7.217250   273A      7.217254  
     274A      7.349125   275A      7.349127   276A      7.653047  
     277A      7.740621   278A      7.740623   279A      7.783502  
     280A      7.979977   281A      8.190606   282A      8.223960  
     283A      8.223962   284A      8.342753   285A      8.355603  
     286A      8.355610   287A      8.401176   288A      8.401182  
     289A      8.509477   290A      8.519857   291A      8.519862  
     292A      8.686931   293A      8.686940   294A      8.843066  
     295A      8.843070   296A      8.878005   297A      8.878006  
     298A      8.918957   299A      9.116154   300A      9.228578  
     301A      9.228578   302A      9.231972   303A      9.277838  
     304A      9.277840   305A      9.355280   306A      9.355284  
     307A      9.375846   308A      9.512798   309A      9.610153  
     310A      9.610156   311A      9.627598   312A      9.660820  
     313A      9.796473   314A      9.796479   315A      9.859376  
     316A     10.105276   317A     10.105282   318A     10.130324  
     319A     10.223404   320A     10.223415   321A     10.466012  
     322A     10.520721   323A     10.674268   324A     10.674288  
     325A     10.827307   326A     10.827315   327A     10.988513  
     328A     11.032863   329A     11.032877   330A     11.220259  
     331A     11.540146   332A     11.540168   333A     11.767651  
     334A     12.138108   335A     12.238815   336A     12.238826  
     337A     12.571688   338A     12.571723   339A     12.760711  
     340A     13.194459   341A     13.194476   342A     13.390708  
     343A     14.018306   344A     14.441954   345A     14.522164  
     346A     14.522214   347A     14.767543   348A     14.767551  
     349A     15.482124   350A     16.104121   351A     16.104143  
     352A     16.422008   353A     18.828915   354A     20.510683  
     355A     21.891477   356A     21.891560   357A     97.710549  

    Final Occupation by Irrep:
              A 
    DOCC [    18 ]
    NA   [    18 ]
    NB   [    18 ]

  @DF-RHF Final Energy: -2573.04670384166047

   => Energetics <=

    Nuclear Repulsion Energy =             12.2315134985768310
    One-Electron Energy =               -3607.5429298270655636
    Two-Electron Energy =                1022.2647124868284436
    Total Energy =                      -2573.0467038416600190

Computation Completed


Properties will be evaluated at   0.000000,   0.000000,   0.000000 [a0]

Properties computed using the SCF density matrix


 Multipole Moments:

 ------------------------------------------------------------------------------------
     Multipole            Electronic (a.u.)      Nuclear  (a.u.)        Total (a.u.)
 ------------------------------------------------------------------------------------

 L = 1.  Multiply by 2.5417464519 to convert [e a0] to [Debye]
 Dipole X            :          0.0004432           -0.0004353            0.0000079
 Dipole Y            :        -35.1459996           34.7477531           -0.3982464
 Dipole Z            :         -0.0000000            0.0000000           -0.0000000
 Magnitude           :                                                    0.3982464

 ------------------------------------------------------------------------------------

*** tstop() called on cmpsrv002 at Thu Sep 26 15:26:22 2024
Module time:
	user time   =      27.06 seconds =       0.45 minutes
	system time =       4.37 seconds =       0.07 minutes
	total time  =         16 seconds =       0.27 minutes
Total time:
	user time   =      73.48 seconds =       1.22 minutes
	system time =      12.55 seconds =       0.21 minutes
	total time  =         49 seconds =       0.82 minutes

*** tstart() called on cmpsrv002
*** at Thu Sep 26 15:26:22 2024


  //>>>>>>>>>>>>>>>>>>>>>>>>>>>>>>>>>>>//
  //               DFMP2               //
  //<<<<<<<<<<<<<<<<<<<<<<<<<<<<<<<<<<<//

   => Loading Basis Set <=

    Name: (THIS_BASIS AUX)
    Role: RIFIT
    Keyword: DF_BASIS_MP2
    atoms 1, 4-6 entry H          line    30 file /home/vance/anaconda3/envs/p4env/share/psi4/basis/aug-cc-pvqz-ri.gbs 
    atoms 2      entry BR         line  1518 file /home/vance/anaconda3/envs/p4env/share/psi4/basis/aug-cc-pvqz-ri.gbs 
    atoms 3      entry N          line   258 file /home/vance/anaconda3/envs/p4env/share/psi4/basis/aug-cc-pvqz-ri.gbs 

	 --------------------------------------------------------
	                          DF-MP2                         
	      2nd-Order Density-Fitted Moller-Plesset Theory     
	              RMP2 Wavefunction,   4 Threads             
	                                                         
	        Rob Parrish, Justin Turney, Andy Simmonett,      
	           Ed Hohenstein, and C. David Sherrill          
	 --------------------------------------------------------

   => Auxiliary Basis Set <=

  Basis Set: (THIS_BASIS AUX)
    Blend: AUG-CC-PVQZ-RI
    Number of shells: 168
    Number of basis functions: 750
    Number of Cartesian functions: 1044
    Spherical Harmonics?: true
    Max angular momentum: 6

	 --------------------------------------------------------
	                 NBF =   357, NAUX =   750
	 --------------------------------------------------------
	   CLASS    FOCC     OCC    AOCC    AVIR     VIR    FVIR
	   PAIRS       0      18      18     339     339       0
	 --------------------------------------------------------

	 Will attempt to load fitting metric from file 97.

	-----------------------------------------------------------
	 ==================> DF-MP2 Energies <==================== 
	-----------------------------------------------------------
	 Reference Energy          =   -2573.0467038416604737 [Eh]
	 Singles Energy            =      -0.0000000000000000 [Eh]
	 Same-Spin Energy          =      -0.1184075599237942 [Eh]
	 Opposite-Spin Energy      =      -0.2864702701250282 [Eh]
	 Correlation Energy        =      -0.4048778300488224 [Eh]
	 Total Energy              =   -2573.4515816717093912 [Eh]
	-----------------------------------------------------------
	 ================> DF-SCS-MP2 Energies <================== 
	-----------------------------------------------------------
	 SCS Same-Spin Scale       =       0.3333333333333333 [-]
	 SCS Opposite-Spin Scale   =       1.2000000000000000 [-]
	 SCS Same-Spin Energy      =      -0.0394691866412647 [Eh]
	 SCS Opposite-Spin Energy  =      -0.3437643241500339 [Eh]
	 SCS Correlation Energy    =      -0.3832335107912986 [Eh]
	 SCS Total Energy          =   -2573.4299373524518160 [Eh]
	-----------------------------------------------------------


*** tstop() called on cmpsrv002 at Thu Sep 26 15:26:31 2024
Module time:
	user time   =      10.90 seconds =       0.18 minutes
	system time =       1.86 seconds =       0.03 minutes
	total time  =          9 seconds =       0.15 minutes
Total time:
	user time   =      84.39 seconds =       1.41 minutes
	system time =      14.41 seconds =       0.24 minutes
	total time  =         58 seconds =       0.97 minutes

  //>>>>>>>>>>>>>>>>>>>>>>>>>>>>>>>>>>>//
  //            Monomer B HF           //
  //<<<<<<<<<<<<<<<<<<<<<<<<<<<<<<<<<<<//

   => Libint2 <=

    Primary   basis highest AM E, G, H:  6, 6, 3
    Auxiliary basis highest AM E, G, H:  7, 7, 4
    Onebody   basis highest AM E, G, H:  -, -, -
    Solid Harmonics ordering:            Gaussian

*** tstart() called on cmpsrv002
*** at Thu Sep 26 15:26:31 2024

   => Loading Basis Set <=

    Name: THIS_BASIS
    Role: ORBITAL
    Keyword: BASIS
    atoms 1, 4-6 entry H          line    40 file /home/vance/anaconda3/envs/p4env/share/psi4/basis/aug-cc-pvqz.gbs 
    atoms 2      entry BR         line  5448 file /home/vance/anaconda3/envs/p4env/share/psi4/basis/aug-cc-pvqz.gbs 
    atoms 3      entry N          line   363 file /home/vance/anaconda3/envs/p4env/share/psi4/basis/aug-cc-pvqz.gbs 


         ---------------------------------------------------------
                                   SCF
               by Justin Turney, Rob Parrish, Andy Simmonett
                          and Daniel G. A. Smith
                              RHF Reference
                        4 Threads,   7629 MiB Core
         ---------------------------------------------------------

  ==> Geometry <==

    Molecular point group: c1
    Full point group: Cs

    Geometry (in Angstrom), charge = 0, multiplicity = 1:

       Center              X                  Y                   Z               Mass       
    ------------   -----------------  -----------------  -----------------  -----------------
      Gh(H)           0.000022767418    -0.961388358650     0.000000000000     1.007825032230
      Gh(BR)         -0.000007232582     0.552831641350     0.000000000000    78.918337600000
         N            0.000032767418    -2.442888358650     0.000000000000    14.003074004430
         H           -0.474347232582    -2.795358358650     0.821650000000     1.007825032230
         H           -0.474347232582    -2.795358358650    -0.821650000000     1.007825032230
         H            0.948782767418    -2.795358358650     0.000000000000     1.007825032230

  Running in c1 symmetry.

  Rotational constants: A =      6.19413  B =      0.12618  C =      0.12618 [cm^-1]
  Rotational constants: A = 185695.44926  B =   3782.68572  C =   3782.68521 [MHz]
  Nuclear repulsion =   11.945783476959880

  Charge       = 0
  Multiplicity = 1
  Electrons    = 10
  Nalpha       = 5
  Nbeta        = 5

  ==> Algorithm <==

  SCF Algorithm Type is DF.
  DIIS enabled.
  MOM disabled.
  Fractional occupation disabled.
  Guess Type is SAD.
  Energy threshold   = 1.00e-08
  Density threshold  = 1.00e-08
  Integral threshold = 1.00e-12

  ==> Primary Basis <==

  Basis Set: THIS_BASIS
    Blend: AUG-CC-PVQZ
    Number of shells: 101
    Number of basis functions: 357
    Number of Cartesian functions: 444
    Spherical Harmonics?: true
    Max angular momentum: 4

   => Loading Basis Set <=

    Name: (THIS_BASIS AUX)
    Role: JKFIT
    Keyword: DF_BASIS_SCF
    atoms 1, 4-6 entry H          line    70 file /home/vance/anaconda3/envs/p4env/share/psi4/basis/aug-cc-pvqz-jkfit.gbs 
    atoms 2      entry BR         line  1612 file /home/vance/anaconda3/envs/p4env/share/psi4/basis/aug-cc-pvqz-jkfit.gbs 
    atoms 3      entry N          line   248 file /home/vance/anaconda3/envs/p4env/share/psi4/basis/aug-cc-pvqz-jkfit.gbs 

  ==> Integral Setup <==

  ==> DiskDFJK: Density-Fitted J/K Matrices <==

    J tasked:                  Yes
    K tasked:                  Yes
    wK tasked:                  No
    OpenMP threads:              4
    Integrals threads:           4
    Memory [MiB]:             5722
    Algorithm:                Core
    Integral Cache:           LOAD
    Schwarz Cutoff:          1E-12
    Fitting Condition:       1E-10

   => Auxiliary Basis Set <=

  Basis Set: (THIS_BASIS AUX)
    Blend: AUG-CC-PVQZ-JKFIT
    Number of shells: 166
    Number of basis functions: 716
    Number of Cartesian functions: 973
    Spherical Harmonics?: true
    Max angular momentum: 5

  Minimum eigenvalue in the overlap matrix is 7.7455407705E-06.
  Reciprocal condition number of the overlap matrix is 6.2524867089E-07.
    Using symmetric orthogonalization.

  ==> Pre-Iterations <==

  SCF Guess: Superposition of Atomic Densities via on-the-fly atomic UHF (no occupation information).

   -------------------------
    Irrep   Nso     Nmo    
   -------------------------
     A        357     357 
   -------------------------
    Total     357     357
   -------------------------

  ==> Iterations <==

                           Total Energy        Delta E     RMS |[F,P]|

   @DF-RHF iter SAD:   -55.64105547149704   -5.56411e+01   0.00000e+00 
   @DF-RHF iter   1:   -56.12632271691817   -4.85267e-01   1.30909e-03 DIIS/ADIIS
   @DF-RHF iter   2:   -56.19507555340240   -6.87528e-02   7.58759e-04 DIIS/ADIIS
   @DF-RHF iter   3:   -56.22329683277652   -2.82213e-02   6.88963e-05 DIIS
   @DF-RHF iter   4:   -56.22393242325538   -6.35590e-04   1.28529e-05 DIIS
   @DF-RHF iter   5:   -56.22395352644743   -2.11032e-05   2.38358e-06 DIIS
   @DF-RHF iter   6:   -56.22395476380531   -1.23736e-06   6.32310e-07 DIIS
   @DF-RHF iter   7:   -56.22395485098940   -8.71841e-08   1.40243e-07 DIIS
   @DF-RHF iter   8:   -56.22395485551709   -4.52768e-09   2.09485e-08 DIIS
   @DF-RHF iter   9:   -56.22395485561827   -1.01188e-10   5.65861e-09 DIIS
  Energy and wave function converged.


  ==> Post-Iterations <==

    Orbital Energies [Eh]
    ---------------------

    Doubly Occupied:                                                      

       1A    -15.538884     2A     -1.139033     3A     -0.631521  
       4A     -0.631519     5A     -0.424225  

    Virtual:                                                              

       6A      0.024734     7A      0.040780     8A      0.043074  
       9A      0.043074    10A      0.081477    11A      0.081672  
      12A      0.081672    13A      0.111977    14A      0.136017  
      15A      0.136565    16A      0.136566    17A      0.150949  
      18A      0.179882    19A      0.179883    20A      0.209359  
      21A      0.209359    22A      0.248081    23A      0.261965  
      24A      0.261965    25A      0.264812    26A      0.269633  
      27A      0.269633    28A      0.282992    29A      0.286405  
      30A      0.310849    31A      0.310849    32A      0.334494  
      33A      0.340486    34A      0.340486    35A      0.347905  
      36A      0.377091    37A      0.387794    38A      0.387796  
      39A      0.415173    40A      0.415175    41A      0.452343  
      42A      0.455593    43A      0.455594    44A      0.522793  
      45A      0.536744    46A      0.536748    47A      0.557183  
      48A      0.557187    49A      0.568558    50A      0.581587  
      51A      0.649678    52A      0.676470    53A      0.676471  
      54A      0.678518    55A      0.706902    56A      0.719215  
      57A      0.722720    58A      0.722720    59A      0.736649  
      60A      0.741983    61A      0.741984    62A      0.771834  
      63A      0.775848    64A      0.775848    65A      0.778612  
      66A      0.778613    67A      0.783862    68A      0.794024  
      69A      0.794026    70A      0.795113    71A      0.849491  
      72A      0.849492    73A      0.880593    74A      0.894852  
      75A      0.894853    76A      0.913729    77A      0.913732  
      78A      0.937350    79A      0.937352    80A      0.973640  
      81A      0.973640    82A      0.974240    83A      0.979440  
      84A      1.037391    85A      1.066973    86A      1.066976  
      87A      1.105320    88A      1.105322    89A      1.125647  
      90A      1.253174    91A      1.321606    92A      1.325000  
      93A      1.325002    94A      1.372325    95A      1.378613  
      96A      1.378616    97A      1.422154    98A      1.441549  
      99A      1.441549   100A      1.476277   101A      1.481614  
     102A      1.529367   103A      1.529370   104A      1.570966  
     105A      1.570969   106A      1.580869   107A      1.590673  
     108A      1.598459   109A      1.598460   110A      1.607569  
     111A      1.607909   112A      1.607909   113A      1.634633  
     114A      1.706544   115A      1.706544   116A      1.731719  
     117A      1.731721   118A      1.759016   119A      1.793811  
     120A      1.793814   121A      1.829366   122A      1.845182  
     123A      1.877298   124A      1.877300   125A      1.885109  
     126A      1.908923   127A      1.920725   128A      1.920729  
     129A      1.923011   130A      1.935491   131A      1.935493  
     132A      1.956729   133A      1.956730   134A      2.004207  
     135A      2.004208   136A      2.019463   137A      2.030033  
     138A      2.030033   139A      2.042252   140A      2.062939  
     141A      2.068111   142A      2.068113   143A      2.094235  
     144A      2.098081   145A      2.098083   146A      2.139452  
     147A      2.139454   148A      2.165815   149A      2.238373  
     150A      2.238373   151A      2.247823   152A      2.287159  
     153A      2.344494   154A      2.411955   155A      2.411959  
     156A      2.436927   157A      2.450014   158A      2.450017  
     159A      2.531747   160A      2.562548   161A      2.605649  
     162A      2.605651   163A      2.680002   164A      2.696492  
     165A      2.696495   166A      2.731218   167A      2.765500  
     168A      2.765503   169A      2.860659   170A      2.860660  
     171A      2.933088   172A      2.963052   173A      2.963056  
     174A      2.997346   175A      3.038584   176A      3.044010  
     177A      3.044015   178A      3.149295   179A      3.149295  
     180A      3.169809   181A      3.176601   182A      3.220837  
     183A      3.220839   184A      3.228900   185A      3.292075  
     186A      3.292077   187A      3.349488   188A      3.427944  
     189A      3.427944   190A      3.455287   191A      3.455292  
     192A      3.561951   193A      3.590014   194A      3.590019  
     195A      3.701825   196A      3.722319   197A      3.834062  
     198A      3.834069   199A      3.908825   200A      3.908828  
     201A      4.023446   202A      4.023447   203A      4.049168  
     204A      4.076905   205A      4.167934   206A      4.191379  
     207A      4.191380   208A      4.232902   209A      4.285480  
     210A      4.285488   211A      4.336869   212A      4.336869  
     213A      4.342754   214A      4.376210   215A      4.381455  
     216A      4.464680   217A      4.464684   218A      4.543501  
     219A      4.643510   220A      4.643515   221A      4.663443  
     222A      4.663449   223A      4.744036   224A      4.744046  
     225A      4.756319   226A      4.825157   227A      4.863560  
     228A      4.863565   229A      4.880841   230A      4.888318  
     231A      4.942016   232A      4.942018   233A      5.007930  
     234A      5.007937   235A      5.062431   236A      5.071034  
     237A      5.071038   238A      5.225112   239A      5.255082  
     240A      5.255085   241A      5.297750   242A      5.297753  
     243A      5.350010   244A      5.350010   245A      5.485371  
     246A      5.520151   247A      5.520158   248A      5.589086  
     249A      5.771935   250A      6.074246   251A      6.081441  
     252A      6.081448   253A      6.353109   254A      6.861978  
     255A      6.864641   256A      6.965984   257A      6.965986  
     258A      7.040619   259A      7.040629   260A      7.059798  
     261A      7.098506   262A      7.411960   263A      7.446890  
     264A      7.456638   265A      7.456648   266A      7.517705  
     267A      7.517707   268A      7.702575   269A      7.732530  
     270A      7.732540   271A      7.785878   272A      7.940163  
     273A      7.940166   274A      8.084964   275A      8.084968  
     276A      8.121849   277A      8.121863   278A      8.239671  
     279A      8.292348   280A      8.313680   281A      8.313687  
     282A      8.397027   283A      8.545037   284A      8.545049  
     285A      8.643079   286A      8.766451   287A      8.766455  
     288A      8.923957   289A      8.945609   290A      8.945621  
     291A      8.986991   292A      8.999505   293A      9.000535  
     294A      9.000538   295A      9.090951   296A      9.215865  
     297A      9.224362   298A      9.224365   299A      9.361518  
     300A      9.361523   301A      9.445294   302A      9.445294  
     303A      9.530605   304A      9.530609   305A      9.757791  
     306A      9.769000   307A      9.769295   308A      9.769309  
     309A      9.874124   310A      9.874130   311A      9.998070  
     312A     10.078582   313A     10.078583   314A     10.169765  
     315A     10.175634   316A     10.175635   317A     10.353989  
     318A     10.353990   319A     10.407737   320A     10.589447  
     321A     10.589450   322A     10.856744   323A     10.896509  
     324A     10.942607   325A     10.942610   326A     11.087374  
     327A     11.087390   328A     11.236589   329A     11.884000  
     330A     11.989988   331A     12.228685   332A     12.228722  
     333A     12.550740   334A     12.550789   335A     12.570929  
     336A     12.904512   337A     13.077290   338A     13.212536  
     339A     13.212565   340A     14.688472   341A     14.688473  
     342A     14.919792   343A     15.135588   344A     15.135650  
     345A     15.396874   346A     21.182884   347A     30.119741  
     348A     30.119742   349A     30.789865   350A     30.789869  
     351A     31.106449   352A     37.783421   353A     52.022134  
     354A    139.445020   355A    139.445022   356A    139.622161  
     357A    729.304315  

    Final Occupation by Irrep:
              A 
    DOCC [     5 ]
    NA   [     5 ]
    NB   [     5 ]

  @DF-RHF Final Energy:   -56.22395485561827

   => Energetics <=

    Nuclear Repulsion Energy =             11.9457834769598801
    One-Electron Energy =                 -99.6091125513466835
    Two-Electron Energy =                  31.4393742187685312
    Total Energy =                        -56.2239548556182740

Computation Completed


Properties will be evaluated at   0.000000,   0.000000,   0.000000 [a0]

Properties computed using the SCF density matrix


 Multipole Moments:

 ------------------------------------------------------------------------------------
     Multipole            Electronic (a.u.)      Nuclear  (a.u.)        Total (a.u.)
 ------------------------------------------------------------------------------------

 L = 1.  Multiply by 2.5417464519 to convert [e a0] to [Debye]
 Dipole X            :         -0.0006022            0.0006003           -0.0000018
 Dipole Y            :         47.5646124          -48.1621148           -0.5975025
 Dipole Z            :         -0.0000000            0.0000000           -0.0000000
 Magnitude           :                                                    0.5975025

 ------------------------------------------------------------------------------------

*** tstop() called on cmpsrv002 at Thu Sep 26 15:26:45 2024
Module time:
	user time   =      22.89 seconds =       0.38 minutes
	system time =       1.89 seconds =       0.03 minutes
	total time  =         14 seconds =       0.23 minutes
Total time:
	user time   =     107.31 seconds =       1.79 minutes
	system time =      16.30 seconds =       0.27 minutes
	total time  =         72 seconds =       1.20 minutes

*** tstart() called on cmpsrv002
*** at Thu Sep 26 15:26:45 2024


  //>>>>>>>>>>>>>>>>>>>>>>>>>>>>>>>>>>>//
  //               DFMP2               //
  //<<<<<<<<<<<<<<<<<<<<<<<<<<<<<<<<<<<//

   => Loading Basis Set <=

    Name: (THIS_BASIS AUX)
    Role: RIFIT
    Keyword: DF_BASIS_MP2
    atoms 1, 4-6 entry H          line    30 file /home/vance/anaconda3/envs/p4env/share/psi4/basis/aug-cc-pvqz-ri.gbs 
    atoms 2      entry BR         line  1518 file /home/vance/anaconda3/envs/p4env/share/psi4/basis/aug-cc-pvqz-ri.gbs 
    atoms 3      entry N          line   258 file /home/vance/anaconda3/envs/p4env/share/psi4/basis/aug-cc-pvqz-ri.gbs 

	 --------------------------------------------------------
	                          DF-MP2                         
	      2nd-Order Density-Fitted Moller-Plesset Theory     
	              RMP2 Wavefunction,   4 Threads             
	                                                         
	        Rob Parrish, Justin Turney, Andy Simmonett,      
	           Ed Hohenstein, and C. David Sherrill          
	 --------------------------------------------------------

   => Auxiliary Basis Set <=

  Basis Set: (THIS_BASIS AUX)
    Blend: AUG-CC-PVQZ-RI
    Number of shells: 168
    Number of basis functions: 750
    Number of Cartesian functions: 1044
    Spherical Harmonics?: true
    Max angular momentum: 6

	 --------------------------------------------------------
	                 NBF =   357, NAUX =   750
	 --------------------------------------------------------
	   CLASS    FOCC     OCC    AOCC    AVIR     VIR    FVIR
	   PAIRS       0       5       5     352     352       0
	 --------------------------------------------------------

	 Will attempt to load fitting metric from file 97.

	-----------------------------------------------------------
	 ==================> DF-MP2 Energies <==================== 
	-----------------------------------------------------------
	 Reference Energy          =     -56.2239548556182740 [Eh]
	 Singles Energy            =      -0.0000000000000000 [Eh]
	 Same-Spin Energy          =      -0.0594684975014439 [Eh]
	 Opposite-Spin Energy      =      -0.2253360492184906 [Eh]
	 Correlation Energy        =      -0.2848045467199345 [Eh]
	 Total Energy              =     -56.5087594023382067 [Eh]
	-----------------------------------------------------------
	 ================> DF-SCS-MP2 Energies <================== 
	-----------------------------------------------------------
	 SCS Same-Spin Scale       =       0.3333333333333333 [-]
	 SCS Opposite-Spin Scale   =       1.2000000000000000 [-]
	 SCS Same-Spin Energy      =      -0.0198228325004813 [Eh]
	 SCS Opposite-Spin Energy  =      -0.2704032590621887 [Eh]
	 SCS Correlation Energy    =      -0.2902260915626700 [Eh]
	 SCS Total Energy          =     -56.5141809471809466 [Eh]
	-----------------------------------------------------------


*** tstop() called on cmpsrv002 at Thu Sep 26 15:26:54 2024
Module time:
	user time   =       8.65 seconds =       0.14 minutes
	system time =       1.13 seconds =       0.02 minutes
	total time  =          9 seconds =       0.15 minutes
Total time:
	user time   =     115.96 seconds =       1.93 minutes
	system time =      17.43 seconds =       0.29 minutes
	total time  =         81 seconds =       1.35 minutes
  Constructing Basis Sets for SAPT...

   => Loading Basis Set <=

    Name: (THIS_BASIS AUX)
    Role: RIFIT
    Keyword: DF_BASIS_SAPT
    atoms 1, 4-6 entry H          line    30 file /home/vance/anaconda3/envs/p4env/share/psi4/basis/aug-cc-pvqz-ri.gbs 
    atoms 2      entry BR         line  1518 file /home/vance/anaconda3/envs/p4env/share/psi4/basis/aug-cc-pvqz-ri.gbs 
    atoms 3      entry N          line   258 file /home/vance/anaconda3/envs/p4env/share/psi4/basis/aug-cc-pvqz-ri.gbs 

   => Loading Basis Set <=

    Name: (THIS_BASIS AUX)
    Role: JKFIT
    Keyword: DF_BASIS_ELST
    atoms 1, 4-6 entry H          line    70 file /home/vance/anaconda3/envs/p4env/share/psi4/basis/aug-cc-pvqz-jkfit.gbs 
    atoms 2      entry BR         line  1612 file /home/vance/anaconda3/envs/p4env/share/psi4/basis/aug-cc-pvqz-jkfit.gbs 
    atoms 3      entry N          line   248 file /home/vance/anaconda3/envs/p4env/share/psi4/basis/aug-cc-pvqz-jkfit.gbs 


  //>>>>>>>>>>>>>>>>>>>>>>>>>>>>>>>>>>>//
  //             SAPT2+DMP2            //
  //<<<<<<<<<<<<<<<<<<<<<<<<<<<<<<<<<<<//


*** tstart() called on cmpsrv002
*** at Thu Sep 26 15:26:54 2024

        SAPT2+  
    Ed Hohenstein
     6 June 2009

      Orbital Information
  --------------------------
    NSO        =       357
    NMO        =       357
    NRI        =       750
    NOCC A     =        18
    NOCC B     =         5
    FOCC A     =         0
    FOCC B     =         0
    NVIR A     =       339
    NVIR B     =       352

    Estimated memory usage: 1706.9 MB

    Natural Orbital Cutoff:   1.000E-06
    Disp(T3) Truncation:            Yes
    CCD (vv|vv) Truncation:         Yes
    MBPT T2 Truncation:             Yes

    Monomer A: 225 virtual orbitals dropped
    Monomer B: 183 virtual orbitals dropped

    Elst10,r            =    -0.057709954228 [Eh]
    Exch10 (S^2)        =     0.094017027392 [Eh]
    Exch10              =     0.101070117404 [Eh]
    Ind20,r (A<-B)      =    -0.023020822327 [Eh]
    Ind20,r (B<-A)      =    -0.037791091769 [Eh]
    Ind20,r             =    -0.060811914096 [Eh]
    Exch-Ind20,r (A<-B) =     0.017409428754 [Eh]
    Exch-Ind20,r (B<-A) =     0.019897366923 [Eh]
    Exch-Ind20,r        =     0.037306795677 [Eh]
    Disp20              =    -0.023216491636 [Eh]
    Disp20 (NO)         =    -0.020539581339 [Eh]
    Exch-Disp20         =     0.004956624344 [Eh]
    Elst12,r            =     0.001497552913 [Eh]
    Exch11              =     0.004722074278 [Eh]
    Exch12              =    -0.002213736217 [Eh]
    Ind22               =    -0.002383308848 [Eh]
    Disp21              =     0.002340846513 [Eh]
    Disp22 (SDQ)        =     0.001055382648 [Eh]

    (i =   1 of   5)         46 seconds
    (i =   2 of   5)         81 seconds
    (i =   3 of   5)        107 seconds
    (i =   4 of   5)        133 seconds
    (i =   5 of   5)        158 seconds

    Disp220 (T)         =    -0.001465365161 [Eh]

    (i =   1 of  18)          7 seconds
    (i =   2 of  18)         13 seconds
    (i =   3 of  18)         20 seconds
    (i =   4 of  18)         26 seconds
    (i =   5 of  18)         32 seconds
    (i =   6 of  18)         38 seconds
    (i =   7 of  18)         44 seconds
    (i =   8 of  18)         50 seconds
    (i =   9 of  18)         56 seconds
