
    -----------------------------------------------------------------------
          Psi4: An Open-Source Ab Initio Electronic Structure Package
                               Psi4 1.9.1 release

                         Git: Rev {} zzzzzzz 


    D. G. A. Smith, L. A. Burns, A. C. Simmonett, R. M. Parrish,
    M. C. Schieber, R. Galvelis, P. Kraus, H. Kruse, R. Di Remigio,
    A. Alenaizan, A. M. James, S. Lehtola, J. P. Misiewicz, M. Scheurer,
    R. A. Shaw, J. B. Schriber, Y. Xie, Z. L. Glick, D. A. Sirianni,
    J. S. O'Brien, J. M. Waldrop, A. Kumar, E. G. Hohenstein,
    B. P. Pritchard, B. R. Brooks, H. F. Schaefer III, A. Yu. Sokolov,
    K. Patkowski, A. E. DePrince III, U. Bozkaya, R. A. King,
    F. A. Evangelista, J. M. Turney, T. D. Crawford, C. D. Sherrill,
    J. Chem. Phys. 152(18) 184108 (2020). https://doi.org/10.1063/5.0006002

                            Additional Code Authors
    E. T. Seidl, C. L. Janssen, E. F. Valeev, M. L. Leininger,
    J. F. Gonthier, R. M. Richard, H. R. McAlexander, M. Saitow, X. Wang,
    P. Verma, M. H. Lechner, A. Jiang, S. Behnle, A. G. Heide,
    M. F. Herbst, and D. L. Poole

             Previous Authors, Complete List of Code Contributors,
                       and Citations for Specific Modules
    https://github.com/psi4/psi4/blob/master/codemeta.json
    https://github.com/psi4/psi4/graphs/contributors
    http://psicode.org/psi4manual/master/introduction.html#citing-psifour

    -----------------------------------------------------------------------


    Psi4 started on: Thursday, 26 September 2024 03:25PM

    Process ID: 636590
    Host:       cmpsrv002
    PSIDATADIR: /home/vance/anaconda3/envs/p4env/share/psi4
    Memory:     500.0 MiB
    Threads:    8
    
  ==> Input File <==

--------------------------------------------------------------------------
#charge=0 charge_a=0 charge_b=0 selection_a=1-2 selection_b=3-6 scaling=0.8 benchmark_Eint=-6.291 benchmark_unit=kcal/mol group=XH-N
set_num_threads(4)
memory 8 GB
basis this_basis {
    assign    aug-cc-pVQZ
}

molecule {
     0 1
    --
     0 1
     H        0.00002       -0.93248        0.00000
    Br       -0.00001        0.58174        0.00000
    --
     0 1
     N        0.00002       -2.24937        0.00000
     H       -0.47436       -2.60184        0.82165
     H       -0.47436       -2.60184       -0.82165
     H        0.94878       -2.60184        0.00000
}

set {
    scf_type                DF
    freeze_core             false
    do_ind_exch_sinf        true
    do_disp_exch_sinf       true
}

nrg = energy('sapt2+dmp2')
--------------------------------------------------------------------------
  Threads set to 4 by Python driver.

  Memory set to   7.451 GiB by Python driver.

Scratch directory: /scratch2/vance/psi4/
  SAPT does not make use of molecular symmetry, further calculations in C1 point group.
   => Loading Basis Set <=

    Name: THIS_BASIS
    Role: ORBITAL
    Keyword: BASIS
    atoms 1, 4-6 entry H          line    40 file /home/vance/anaconda3/envs/p4env/share/psi4/basis/aug-cc-pvqz.gbs 
    atoms 2      entry BR         line  5448 file /home/vance/anaconda3/envs/p4env/share/psi4/basis/aug-cc-pvqz.gbs 
    atoms 3      entry N          line   363 file /home/vance/anaconda3/envs/p4env/share/psi4/basis/aug-cc-pvqz.gbs 

   => Loading Basis Set <=

    Name: THIS_BASIS
    Role: ORBITAL
    Keyword: BASIS
    atoms 1, 4-6 entry H          line    40 file /home/vance/anaconda3/envs/p4env/share/psi4/basis/aug-cc-pvqz.gbs 
    atoms 2      entry BR         line  5448 file /home/vance/anaconda3/envs/p4env/share/psi4/basis/aug-cc-pvqz.gbs 
    atoms 3      entry N          line   363 file /home/vance/anaconda3/envs/p4env/share/psi4/basis/aug-cc-pvqz.gbs 


  //>>>>>>>>>>>>>>>>>>>>>>>>>>>>>>>>>>>//
  //              Dimer HF             //
  //<<<<<<<<<<<<<<<<<<<<<<<<<<<<<<<<<<<//

   => Libint2 <=

    Primary   basis highest AM E, G, H:  6, 6, 3
    Auxiliary basis highest AM E, G, H:  7, 7, 4
    Onebody   basis highest AM E, G, H:  -, -, -
    Solid Harmonics ordering:            Gaussian

*** tstart() called on cmpsrv002
*** at Thu Sep 26 15:25:33 2024

   => Loading Basis Set <=

    Name: THIS_BASIS
    Role: ORBITAL
    Keyword: BASIS
    atoms 1, 4-6 entry H          line    40 file /home/vance/anaconda3/envs/p4env/share/psi4/basis/aug-cc-pvqz.gbs 
    atoms 2      entry BR         line  5448 file /home/vance/anaconda3/envs/p4env/share/psi4/basis/aug-cc-pvqz.gbs 
    atoms 3      entry N          line   363 file /home/vance/anaconda3/envs/p4env/share/psi4/basis/aug-cc-pvqz.gbs 


         ---------------------------------------------------------
                                   SCF
               by Justin Turney, Rob Parrish, Andy Simmonett
                          and Daniel G. A. Smith
                              RHF Reference
                        4 Threads,   7629 MiB Core
         ---------------------------------------------------------

  ==> Geometry <==

    Molecular point group: c1
    Full point group: C1

    Geometry (in Angstrom), charge = 0, multiplicity = 1:

       Center              X                  Y                   Z               Mass       
    ------------   -----------------  -----------------  -----------------  -----------------
         H            0.000024419638    -0.990296681042     0.000000000000     1.007825032230
         BR          -0.000005580362     0.523923318958     0.000000000000    78.918337600000
         N            0.000024419638    -2.307186681042     0.000000000000    14.003074004430
         H           -0.474355580362    -2.659656681042     0.821650000000     1.007825032230
         H           -0.474355580362    -2.659656681042    -0.821650000000     1.007825032230
         H            0.948784419638    -2.659656681042     0.000000000000     1.007825032230

  Running in c1 symmetry.

  Rotational constants: A =      6.19409  B =      0.14055  C =      0.14055 [cm^-1]
  Rotational constants: A = 185694.14444  B =   4213.62765  C =   4213.62762 [MHz]
  Nuclear repulsion =   90.337332855949853

  Charge       = 0
  Multiplicity = 1
  Electrons    = 46
  Nalpha       = 23
  Nbeta        = 23

  ==> Algorithm <==

  SCF Algorithm Type is DF.
  DIIS enabled.
  MOM disabled.
  Fractional occupation disabled.
  Guess Type is SAD.
  Energy threshold   = 1.00e-08
  Density threshold  = 1.00e-08
  Integral threshold = 1.00e-12

  ==> Primary Basis <==

  Basis Set: THIS_BASIS
    Blend: AUG-CC-PVQZ
    Number of shells: 101
    Number of basis functions: 357
    Number of Cartesian functions: 444
    Spherical Harmonics?: true
    Max angular momentum: 4

   => Loading Basis Set <=

    Name: (THIS_BASIS AUX)
    Role: JKFIT
    Keyword: DF_BASIS_SCF
    atoms 1, 4-6 entry H          line    70 file /home/vance/anaconda3/envs/p4env/share/psi4/basis/aug-cc-pvqz-jkfit.gbs 
    atoms 2      entry BR         line  1612 file /home/vance/anaconda3/envs/p4env/share/psi4/basis/aug-cc-pvqz-jkfit.gbs 
    atoms 3      entry N          line   248 file /home/vance/anaconda3/envs/p4env/share/psi4/basis/aug-cc-pvqz-jkfit.gbs 

  ==> Integral Setup <==

  ==> DiskDFJK: Density-Fitted J/K Matrices <==

    J tasked:                  Yes
    K tasked:                  Yes
    wK tasked:                  No
    OpenMP threads:              4
    Integrals threads:           4
    Memory [MiB]:             5722
    Algorithm:                Core
    Integral Cache:           SAVE
    Schwarz Cutoff:          1E-12
    Fitting Condition:       1E-10

   => Auxiliary Basis Set <=

  Basis Set: (THIS_BASIS AUX)
    Blend: AUG-CC-PVQZ-JKFIT
    Number of shells: 166
    Number of basis functions: 716
    Number of Cartesian functions: 973
    Spherical Harmonics?: true
    Max angular momentum: 5

  Minimum eigenvalue in the overlap matrix is 5.7143345017E-06.
  Reciprocal condition number of the overlap matrix is 4.5036668208E-07.
    Using symmetric orthogonalization.

  ==> Pre-Iterations <==

  SCF Guess: Superposition of Atomic Densities via on-the-fly atomic UHF (no occupation information).

   -------------------------
    Irrep   Nso     Nmo    
   -------------------------
     A        357     357 
   -------------------------
    Total     357     357
   -------------------------

  ==> Iterations <==

                           Total Energy        Delta E     RMS |[F,P]|

   @DF-RHF iter SAD: -2627.16961612582099   -2.62717e+03   0.00000e+00 
   @DF-RHF iter   1: -2628.96058388635811   -1.79097e+00   3.70988e-03 ADIIS/DIIS
   @DF-RHF iter   2: -2629.19504178429770   -2.34458e-01   2.08254e-03 ADIIS/DIIS
   @DF-RHF iter   3: -2629.26957478465829   -7.45330e-02   8.73168e-05 DIIS
   @DF-RHF iter   4: -2629.27038729585865   -8.12511e-04   2.46298e-05 DIIS
   @DF-RHF iter   5: -2629.27045698549273   -6.96896e-05   7.81115e-06 DIIS
   @DF-RHF iter   6: -2629.27046312995890   -6.14447e-06   2.46176e-06 DIIS
   @DF-RHF iter   7: -2629.27046368777974   -5.57821e-07   5.48534e-07 DIIS
   @DF-RHF iter   8: -2629.27046374021165   -5.24319e-08   2.04187e-07 DIIS
   @DF-RHF iter   9: -2629.27046374697056   -6.75891e-09   4.21567e-08 DIIS
   @DF-RHF iter  10: -2629.27046374733345   -3.62888e-10   7.02553e-09 DIIS
  Energy and wave function converged.


  ==> Post-Iterations <==

    Orbital Energies [Eh]
    ---------------------

    Doubly Occupied:                                                      

       1A   -489.944234     2A    -65.086029     3A    -58.440684  
       4A    -58.440387     5A    -58.440387     6A    -15.627343  
       7A     -9.760087     8A     -7.369329     9A     -7.366784  
      10A     -7.366784    11A     -3.111499    12A     -3.109901  
      13A     -3.109901    14A     -3.107197    15A     -3.107197  
      16A     -1.244035    17A     -0.955229    18A     -0.720620  
      19A     -0.720620    20A     -0.654382    21A     -0.388994  
      22A     -0.365020    23A     -0.365020  

    Virtual:                                                              

      24A      0.009172    25A      0.033795    26A      0.033795  
      27A      0.049544    28A      0.092639    29A      0.098272  
      30A      0.101421    31A      0.101421    32A      0.120170  
      33A      0.120170    34A      0.138912    35A      0.154104  
      36A      0.154104    37A      0.165573    38A      0.191284  
      39A      0.191285    40A      0.254003    41A      0.259319  
      42A      0.259320    43A      0.263333    44A      0.268670  
      45A      0.294687    46A      0.294688    47A      0.301857  
      48A      0.309185    49A      0.309185    50A      0.319768  
      51A      0.343730    52A      0.343730    53A      0.363024  
      54A      0.363024    55A      0.383461    56A      0.403566  
      57A      0.403567    58A      0.407312    59A      0.433797  
      60A      0.433799    61A      0.434813    62A      0.442741  
      63A      0.513736    64A      0.513738    65A      0.528242  
      66A      0.528243    67A      0.552633    68A      0.597497  
      69A      0.605776    70A      0.605777    71A      0.628689  
      72A      0.628691    73A      0.654345    74A      0.671022  
      75A      0.682407    76A      0.692024    77A      0.692024  
      78A      0.716659    79A      0.717364    80A      0.717365  
      81A      0.738504    82A      0.738505    83A      0.745014  
      84A      0.756787    85A      0.799206    86A      0.799207  
      87A      0.813582    88A      0.840429    89A      0.853652  
      90A      0.853653    91A      0.873674    92A      0.873675  
      93A      0.896461    94A      0.896464    95A      0.901022  
      96A      0.923821    97A      0.923822    98A      0.929159  
      99A      0.940848   100A      1.016200   101A      1.016203  
     102A      1.056056   103A      1.056058   104A      1.081264  
     105A      1.141116   106A      1.141118   107A      1.161331  
     108A      1.304742   109A      1.304744   110A      1.310093  
     111A      1.310094   112A      1.317147   113A      1.349474  
     114A      1.356571   115A      1.385117   116A      1.385118  
     117A      1.395776   118A      1.395778   119A      1.421825  
     120A      1.423129   121A      1.500964   122A      1.500964  
     123A      1.519848   124A      1.519849   125A      1.529197  
     126A      1.539714   127A      1.562814   128A      1.562814  
     129A      1.577425   130A      1.577428   131A      1.585207  
     132A      1.599406   133A      1.646436   134A      1.646442  
     135A      1.657668   136A      1.674068   137A      1.698428  
     138A      1.698431   139A      1.707562   140A      1.707562  
     141A      1.720258   142A      1.772617   143A      1.772617  
     144A      1.804368   145A      1.824131   146A      1.843943  
     147A      1.843946   148A      1.857511   149A      1.881065  
     150A      1.881068   151A      1.934625   152A      1.934625  
     153A      1.949126   154A      1.949128   155A      1.960021  
     156A      1.985380   157A      1.985383   158A      2.001458  
     159A      2.023649   160A      2.054968   161A      2.096158  
     162A      2.096161   163A      2.106155   164A      2.174028  
     165A      2.174030   166A      2.190785   167A      2.229584  
     168A      2.272447   169A      2.272447   170A      2.297739  
     171A      2.315935   172A      2.315940   173A      2.395663  
     174A      2.475010   175A      2.475011   176A      2.532628  
     177A      2.537816   178A      2.581838   179A      2.581841  
     180A      2.638199   181A      2.705226   182A      2.705229  
     183A      2.709661   184A      2.709663   185A      2.738755  
     186A      2.860864   187A      2.886771   188A      2.886772  
     189A      2.927518   190A      2.927519   191A      2.993028  
     192A      3.047386   193A      3.047391   194A      3.077535  
     195A      3.086798   196A      3.105243   197A      3.105246  
     198A      3.107080   199A      3.173924   200A      3.173925  
     201A      3.232021   202A      3.232024   203A      3.327374  
     204A      3.327380   205A      3.389740   206A      3.410547  
     207A      3.441374   208A      3.458321   209A      3.458323  
     210A      3.486048   211A      3.498010   212A      3.547718  
     213A      3.547721   214A      3.605880   215A      3.605881  
     216A      3.639937   217A      3.670853   218A      3.670855  
     219A      3.675820   220A      3.733864   221A      3.733864  
     222A      3.755292   223A      3.755497   224A      3.800243  
     225A      3.800246   226A      3.894900   227A      3.894900  
     228A      3.935832   229A      3.935836   230A      3.970041  
     231A      4.021578   232A      4.044593   233A      4.044594  
     234A      4.075750   235A      4.157062   236A      4.168733  
     237A      4.168736   238A      4.183187   239A      4.295670  
     240A      4.295672   241A      4.328126   242A      4.328128  
     243A      4.334652   244A      4.421809   245A      4.421813  
     246A      4.533724   247A      4.635565   248A      4.731776  
     249A      4.731779   250A      4.757479   251A      4.757481  
     252A      4.875545   253A      4.875549   254A      4.957693  
     255A      4.957694   256A      4.976135   257A      5.175669  
     258A      5.175673   259A      5.319151   260A      5.319156  
     261A      5.407160   262A      5.409505   263A      5.485007  
     264A      5.584259   265A      5.584262   266A      5.653141  
     267A      6.096365   268A      6.730978   269A      6.806531  
     270A      6.838268   271A      6.838273   272A      6.897206  
     273A      6.967613   274A      6.967613   275A      7.368465  
     276A      7.368467   277A      7.370488   278A      7.370772  
     279A      7.430929   280A      7.430939   281A      7.604124  
     282A      7.604126   283A      7.633692   284A      7.674190  
     285A      7.779917   286A      7.779918   287A      7.970564  
     288A      7.970568   289A      8.007013   290A      8.068186  
     291A      8.068186   292A      8.195477   293A      8.236108  
     294A      8.236109   295A      8.316471   296A      8.464748  
     297A      8.464751   298A      8.495631   299A      8.586411  
     300A      8.688049   301A      8.688049   302A      8.850600  
     303A      8.850604   304A      8.899060   305A      8.925047  
     306A      8.966518   307A      8.966524   308A      9.022002  
     309A      9.022003   310A      9.040080   311A      9.075955  
     312A      9.075957   313A      9.158493   314A      9.158497  
     315A      9.178727   316A      9.346740   317A      9.346741  
     318A      9.353163   319A      9.525832   320A      9.525834  
     321A      9.678463   322A      9.687914   323A      9.706467  
     324A      9.706468   325A      9.890484   326A      9.890485  
     327A      9.907688   328A     10.032007   329A     10.195068  
     330A     10.195070   331A     10.326041   332A     10.326041  
     333A     10.429388   334A     10.515820   335A     10.515821  
     336A     10.701567   337A     10.818821   338A     11.009297  
     339A     11.009298   340A     11.071818   341A     11.071819  
     342A     11.540046   343A     11.884619   344A     12.145806  
     345A     12.145807   346A     12.153103   347A     12.547749  
     348A     12.547750   349A     12.995232   350A     12.996974  
     351A     13.165542   352A     13.165544   353A     15.074171  
     354A     15.074174   355A     15.433369   356A     15.755671  
     357A     38.420335  

    Final Occupation by Irrep:
              A 
    DOCC [    23 ]
    NA   [    23 ]
    NB   [    23 ]

  @DF-RHF Final Energy: -2629.27046374733345

   => Energetics <=

    Nuclear Repulsion Energy =             90.3373328559498532
    One-Electron Energy =               -3841.6122729620792597
    Two-Electron Energy =                1122.0044763587952730
    Total Energy =                      -2629.2704637473339062

Computation Completed


Properties will be evaluated at   0.000000,   0.000000,   0.000000 [a0]

Properties computed using the SCF density matrix


 Multipole Moments:

 ------------------------------------------------------------------------------------
     Multipole            Electronic (a.u.)      Nuclear  (a.u.)        Total (a.u.)
 ------------------------------------------------------------------------------------

 L = 1.  Multiply by 2.5417464519 to convert [e a0] to [Debye]
 Dipole X            :         -0.0001126            0.0001385            0.0000260
 Dipole Y            :         10.2107854          -12.8166089           -2.6058235
 Dipole Z            :         -0.0000000            0.0000000           -0.0000000
 Magnitude           :                                                    2.6058235

 ------------------------------------------------------------------------------------

*** tstop() called on cmpsrv002 at Thu Sep 26 15:26:05 2024
Module time:
	user time   =      40.47 seconds =       0.67 minutes
	system time =       6.95 seconds =       0.12 minutes
	total time  =         32 seconds =       0.53 minutes
Total time:
	user time   =      40.47 seconds =       0.67 minutes
	system time =       6.95 seconds =       0.12 minutes
	total time  =         32 seconds =       0.53 minutes

*** tstart() called on cmpsrv002
*** at Thu Sep 26 15:26:05 2024


  //>>>>>>>>>>>>>>>>>>>>>>>>>>>>>>>>>>>//
  //               DFMP2               //
  //<<<<<<<<<<<<<<<<<<<<<<<<<<<<<<<<<<<//

   => Loading Basis Set <=

    Name: (THIS_BASIS AUX)
    Role: RIFIT
    Keyword: DF_BASIS_MP2
    atoms 1, 4-6 entry H          line    30 file /home/vance/anaconda3/envs/p4env/share/psi4/basis/aug-cc-pvqz-ri.gbs 
    atoms 2      entry BR         line  1518 file /home/vance/anaconda3/envs/p4env/share/psi4/basis/aug-cc-pvqz-ri.gbs 
    atoms 3      entry N          line   258 file /home/vance/anaconda3/envs/p4env/share/psi4/basis/aug-cc-pvqz-ri.gbs 

	 --------------------------------------------------------
	                          DF-MP2                         
	      2nd-Order Density-Fitted Moller-Plesset Theory     
	              RMP2 Wavefunction,   4 Threads             
	                                                         
	        Rob Parrish, Justin Turney, Andy Simmonett,      
	           Ed Hohenstein, and C. David Sherrill          
	 --------------------------------------------------------

   => Auxiliary Basis Set <=

  Basis Set: (THIS_BASIS AUX)
    Blend: AUG-CC-PVQZ-RI
    Number of shells: 168
    Number of basis functions: 750
    Number of Cartesian functions: 1044
    Spherical Harmonics?: true
    Max angular momentum: 6

	 --------------------------------------------------------
	                 NBF =   357, NAUX =   750
	 --------------------------------------------------------
	   CLASS    FOCC     OCC    AOCC    AVIR     VIR    FVIR
	   PAIRS       0      23      23     334     334       0
	 --------------------------------------------------------

	 Will save fitting metric to file 97.

	-----------------------------------------------------------
	 ==================> DF-MP2 Energies <==================== 
	-----------------------------------------------------------
	 Reference Energy          =   -2629.2704637473334515 [Eh]
	 Singles Energy            =      -0.0000000000000000 [Eh]
	 Same-Spin Energy          =      -0.1864908979139507 [Eh]
	 Opposite-Spin Energy      =      -0.5167054438723129 [Eh]
	 Correlation Energy        =      -0.7031963417862636 [Eh]
	 Total Energy              =   -2629.9736600891196758 [Eh]
	-----------------------------------------------------------
	 ================> DF-SCS-MP2 Energies <================== 
	-----------------------------------------------------------
	 SCS Same-Spin Scale       =       0.3333333333333333 [-]
	 SCS Opposite-Spin Scale   =       1.2000000000000000 [-]
	 SCS Same-Spin Energy      =      -0.0621636326379836 [Eh]
	 SCS Opposite-Spin Energy  =      -0.6200465326467755 [Eh]
	 SCS Correlation Energy    =      -0.6822101652847590 [Eh]
	 SCS Total Energy          =   -2629.9526739126181383 [Eh]
	-----------------------------------------------------------


*** tstop() called on cmpsrv002 at Thu Sep 26 15:26:20 2024
Module time:
	user time   =      13.15 seconds =       0.22 minutes
	system time =       1.98 seconds =       0.03 minutes
	total time  =         15 seconds =       0.25 minutes
Total time:
	user time   =      53.62 seconds =       0.89 minutes
	system time =       8.93 seconds =       0.15 minutes
	total time  =         47 seconds =       0.78 minutes

  //>>>>>>>>>>>>>>>>>>>>>>>>>>>>>>>>>>>//
  //            Monomer A HF           //
  //<<<<<<<<<<<<<<<<<<<<<<<<<<<<<<<<<<<//

   => Libint2 <=

    Primary   basis highest AM E, G, H:  6, 6, 3
    Auxiliary basis highest AM E, G, H:  7, 7, 4
    Onebody   basis highest AM E, G, H:  -, -, -
    Solid Harmonics ordering:            Gaussian

*** tstart() called on cmpsrv002
*** at Thu Sep 26 15:26:20 2024

   => Loading Basis Set <=

    Name: THIS_BASIS
    Role: ORBITAL
    Keyword: BASIS
    atoms 1, 4-6 entry H          line    40 file /home/vance/anaconda3/envs/p4env/share/psi4/basis/aug-cc-pvqz.gbs 
    atoms 2      entry BR         line  5448 file /home/vance/anaconda3/envs/p4env/share/psi4/basis/aug-cc-pvqz.gbs 
    atoms 3      entry N          line   363 file /home/vance/anaconda3/envs/p4env/share/psi4/basis/aug-cc-pvqz.gbs 


         ---------------------------------------------------------
                                   SCF
               by Justin Turney, Rob Parrish, Andy Simmonett
                          and Daniel G. A. Smith
                              RHF Reference
                        4 Threads,   7629 MiB Core
         ---------------------------------------------------------

  ==> Geometry <==

    Molecular point group: c1
    Full point group: C1

    Geometry (in Angstrom), charge = 0, multiplicity = 1:

       Center              X                  Y                   Z               Mass       
    ------------   -----------------  -----------------  -----------------  -----------------
         H            0.000024419638    -0.990296681042     0.000000000000     1.007825032230
         BR          -0.000005580362     0.523923318958     0.000000000000    78.918337600000
      Gh(N)           0.000024419638    -2.307186681042     0.000000000000    14.003074004430
      Gh(H)          -0.474355580362    -2.659656681042     0.821650000000     1.007825032230
      Gh(H)          -0.474355580362    -2.659656681042    -0.821650000000     1.007825032230
      Gh(H)           0.948784419638    -2.659656681042     0.000000000000     1.007825032230

  Running in c1 symmetry.

  Rotational constants: A =      6.19409  B =      0.14055  C =      0.14055 [cm^-1]
  Rotational constants: A = 185694.14444  B =   4213.62765  C =   4213.62762 [MHz]
  Nuclear repulsion =   12.231513498576831

  Charge       = 0
  Multiplicity = 1
  Electrons    = 36
  Nalpha       = 18
  Nbeta        = 18

  ==> Algorithm <==

  SCF Algorithm Type is DF.
  DIIS enabled.
  MOM disabled.
  Fractional occupation disabled.
  Guess Type is SAD.
  Energy threshold   = 1.00e-08
  Density threshold  = 1.00e-08
  Integral threshold = 1.00e-12

  ==> Primary Basis <==

  Basis Set: THIS_BASIS
    Blend: AUG-CC-PVQZ
    Number of shells: 101
    Number of basis functions: 357
    Number of Cartesian functions: 444
    Spherical Harmonics?: true
    Max angular momentum: 4

   => Loading Basis Set <=

    Name: (THIS_BASIS AUX)
    Role: JKFIT
    Keyword: DF_BASIS_SCF
    atoms 1, 4-6 entry H          line    70 file /home/vance/anaconda3/envs/p4env/share/psi4/basis/aug-cc-pvqz-jkfit.gbs 
    atoms 2      entry BR         line  1612 file /home/vance/anaconda3/envs/p4env/share/psi4/basis/aug-cc-pvqz-jkfit.gbs 
    atoms 3      entry N          line   248 file /home/vance/anaconda3/envs/p4env/share/psi4/basis/aug-cc-pvqz-jkfit.gbs 

  ==> Integral Setup <==

  ==> DiskDFJK: Density-Fitted J/K Matrices <==

    J tasked:                  Yes
    K tasked:                  Yes
    wK tasked:                  No
    OpenMP threads:              4
    Integrals threads:           4
    Memory [MiB]:             5722
    Algorithm:                Core
    Integral Cache:           LOAD
    Schwarz Cutoff:          1E-12
    Fitting Condition:       1E-10

   => Auxiliary Basis Set <=

  Basis Set: (THIS_BASIS AUX)
    Blend: AUG-CC-PVQZ-JKFIT
    Number of shells: 166
    Number of basis functions: 716
    Number of Cartesian functions: 973
    Spherical Harmonics?: true
    Max angular momentum: 5

  Minimum eigenvalue in the overlap matrix is 5.7143345017E-06.
  Reciprocal condition number of the overlap matrix is 4.5036668208E-07.
    Using symmetric orthogonalization.

  ==> Pre-Iterations <==

  SCF Guess: Superposition of Atomic Densities via on-the-fly atomic UHF (no occupation information).

   -------------------------
    Irrep   Nso     Nmo    
   -------------------------
     A        357     357 
   -------------------------
    Total     357     357
   -------------------------

  ==> Iterations <==

                           Total Energy        Delta E     RMS |[F,P]|

   @DF-RHF iter SAD: -2571.14384274908525   -2.57114e+03   0.00000e+00 
   @DF-RHF iter   1: -2572.80760962691738   -1.66377e+00   3.49540e-03 ADIIS/DIIS
   @DF-RHF iter   2: -2572.98039704811345   -1.72787e-01   1.97950e-03 ADIIS/DIIS
   @DF-RHF iter   3: -2573.04616142647910   -6.57644e-02   5.48949e-05 DIIS
   @DF-RHF iter   4: -2573.04662854117032   -4.67115e-04   1.88766e-05 DIIS
   @DF-RHF iter   5: -2573.04670206528954   -7.35241e-05   4.80844e-06 DIIS
   @DF-RHF iter   6: -2573.04670645264605   -4.38736e-06   8.22070e-07 DIIS
   @DF-RHF iter   7: -2573.04670653515768   -8.25116e-08   2.06815e-07 DIIS
   @DF-RHF iter   8: -2573.04670654211350   -6.95582e-09   2.89290e-08 DIIS
   @DF-RHF iter   9: -2573.04670654225538   -1.41881e-10   4.45637e-09 DIIS
  Energy and wave function converged.


  ==> Post-Iterations <==

    Orbital Energies [Eh]
    ---------------------

    Doubly Occupied:                                                      

       1A   -490.039752     2A    -65.179491     3A    -58.534972  
       4A    -58.533517     5A    -58.533517     6A     -9.851933  
       7A     -7.463420     8A     -7.456727     9A     -7.456727  
      10A     -3.207252    11A     -3.203533    12A     -3.203533  
      13A     -3.194914    14A     -3.194914    15A     -1.020561  
      16A     -0.564749    17A     -0.433627    18A     -0.433627  

    Virtual:                                                              

      19A      0.019189    20A      0.042588    21A      0.042974  
      22A      0.042974    23A      0.075619    24A      0.082653  
      25A      0.088981    26A      0.088981    27A      0.123120  
      28A      0.123121    29A      0.131775    30A      0.151706  
      31A      0.174419    32A      0.179184    33A      0.179184  
      34A      0.211959    35A      0.211960    36A      0.240305  
      37A      0.240305    38A      0.263533    39A      0.273512  
      40A      0.275303    41A      0.275303    42A      0.284922  
      43A      0.303007    44A      0.303007    45A      0.304730  
      46A      0.338997    47A      0.338997    48A      0.356805  
      49A      0.386672    50A      0.397760    51A      0.397764  
      52A      0.413669    53A      0.413669    54A      0.414011  
      55A      0.453742    56A      0.464928    57A      0.464929  
      58A      0.535200    59A      0.553436    60A      0.553440  
      61A      0.561843    62A      0.565243    63A      0.565243  
      64A      0.586277    65A      0.586280    66A      0.625387  
      67A      0.625388    68A      0.635784    69A      0.635784  
      70A      0.644511    71A      0.664330    72A      0.670566  
      73A      0.710410    74A      0.721921    75A      0.721922  
      76A      0.726505    77A      0.770390    78A      0.780064  
      79A      0.796760    80A      0.796761    81A      0.835619  
      82A      0.835621    83A      0.844106    84A      0.880003  
      85A      0.880004    86A      0.889305    87A      0.899870  
      88A      0.899874    89A      0.904890    90A      0.932090  
      91A      0.932092    92A      0.983613    93A      0.993497  
      94A      0.993497    95A      1.021023    96A      1.084312  
      97A      1.084312    98A      1.112291    99A      1.112293  
     100A      1.115544   101A      1.155751   102A      1.155752  
     103A      1.205540   104A      1.243751   105A      1.243751  
     106A      1.285782   107A      1.325320   108A      1.325323  
     109A      1.386773   110A      1.387623   111A      1.387629  
     112A      1.430877   113A      1.430877   114A      1.438389  
     115A      1.458833   116A      1.468425   117A      1.468427  
     118A      1.504757   119A      1.517390   120A      1.517390  
     121A      1.529370   122A      1.576358   123A      1.576360  
     124A      1.593518   125A      1.605440   126A      1.617178  
     127A      1.619380   128A      1.630870   129A      1.630871  
     130A      1.668834   131A      1.668837   132A      1.691149  
     133A      1.725051   134A      1.725055   135A      1.786427  
     136A      1.835864   137A      1.835865   138A      1.863336  
     139A      1.863341   140A      1.866680   141A      1.883332  
     142A      1.897472   143A      1.897474   144A      1.914156  
     145A      1.942109   146A      1.942111   147A      1.978623  
     148A      1.978624   149A      1.994581   150A      1.994584  
     151A      2.022729   152A      2.028521   153A      2.059454  
     154A      2.059457   155A      2.072434   156A      2.073036  
     157A      2.141267   158A      2.187927   159A      2.187928  
     160A      2.235978   161A      2.235978   162A      2.263035  
     163A      2.266497   164A      2.280674   165A      2.280676  
     166A      2.344410   167A      2.344411   168A      2.384240  
     169A      2.406084   170A      2.410656   171A      2.410662  
     172A      2.564573   173A      2.568638   174A      2.597870  
     175A      2.597871   176A      2.659146   177A      2.703583  
     178A      2.703586   179A      2.772205   180A      2.772211  
     181A      2.837394   182A      2.928476   183A      3.005920  
     184A      3.005922   185A      3.156200   186A      3.156202  
     187A      3.182872   188A      3.196574   189A      3.204343  
     190A      3.204345   191A      3.264530   192A      3.264530  
     193A      3.299343   194A      3.304294   195A      3.304296  
     196A      3.323030   197A      3.378023   198A      3.418573  
     199A      3.425213   200A      3.431680   201A      3.431686  
     202A      3.440011   203A      3.470384   204A      3.470387  
     205A      3.521470   206A      3.521471   207A      3.565357  
     208A      3.616199   209A      3.616201   210A      3.665317  
     211A      3.665320   212A      3.668927   213A      3.668927  
     214A      3.687997   215A      3.690072   216A      3.796324  
     217A      3.796324   218A      3.845440   219A      3.845442  
     220A      3.863446   221A      3.893989   222A      3.957308  
     223A      3.957308   224A      3.985734   225A      4.014522  
     226A      4.014523   227A      4.072355   228A      4.172492  
     229A      4.172494   230A      4.202734   231A      4.234743  
     232A      4.256673   233A      4.256674   234A      4.351143  
     235A      4.351144   236A      4.383309   237A      4.402795  
     238A      4.402796   239A      4.434902   240A      4.501295  
     241A      4.501296   242A      4.526915   243A      4.526920  
     244A      4.646672   245A      4.867935   246A      4.891071  
     247A      4.891078   248A      5.130612   249A      5.130614  
     250A      5.184885   251A      5.261512   252A      5.261513  
     253A      5.316281   254A      5.574321   255A      5.574321  
     256A      5.618273   257A      5.847570   258A      5.933918  
     259A      5.933919   260A      6.007079   261A      6.037408  
     262A      6.037411   263A      6.170289   264A      6.571140  
     265A      6.571141   266A      6.610022   267A      6.815693  
     268A      6.824275   269A      7.055184   270A      7.055191  
     271A      7.139995   272A      7.274150   273A      7.274150  
     274A      7.590844   275A      7.590856   276A      7.672396  
     277A      7.816538   278A      7.827614   279A      7.827618  
     280A      8.188518   281A      8.237786   282A      8.237786  
     283A      8.251915   284A      8.379311   285A      8.379312  
     286A      8.437879   287A      8.437887   288A      8.450873  
     289A      8.539960   290A      8.539961   291A      8.550378  
     292A      8.752139   293A      8.752143   294A      8.913731  
     295A      8.913734   296A      8.925341   297A      9.040505  
     298A      9.040505   299A      9.059325   300A      9.237242  
     301A      9.278473   302A      9.278476   303A      9.384773  
     304A      9.384774   305A      9.489444   306A      9.489446  
     307A      9.506563   308A      9.588740   309A      9.655350  
     310A      9.695730   311A      9.696648   312A      9.696648  
     313A      9.896974   314A      9.896976   315A      9.904240  
     316A     10.101868   317A     10.101869   318A     10.157382  
     319A     10.309441   320A     10.309442   321A     10.468578  
     322A     10.722751   323A     10.722752   324A     10.741304  
     325A     10.947035   326A     10.947036   327A     11.066812  
     328A     11.171917   329A     11.171920   330A     11.501153  
     331A     11.764393   332A     11.764393   333A     11.904999  
     334A     12.142744   335A     12.308255   336A     12.308255  
     337A     12.627578   338A     12.627578   339A     12.991209  
     340A     13.234396   341A     13.234397   342A     13.415498  
     343A     14.013576   344A     14.570778   345A     14.570779  
     346A     14.755052   347A     14.755052   348A     15.043291  
     349A     15.777713   350A     16.151118   351A     16.151120  
     352A     16.380873   353A     19.192943   354A     20.604537  
     355A     21.898555   356A     21.898557   357A     98.663963  

    Final Occupation by Irrep:
              A 
    DOCC [    18 ]
    NA   [    18 ]
    NB   [    18 ]

  @DF-RHF Final Energy: -2573.04670654225538

   => Energetics <=

    Nuclear Repulsion Energy =             12.2315134985768310
    One-Electron Energy =               -3607.5429130456650455
    Two-Electron Energy =                1022.2646930048326794
    Total Energy =                      -2573.0467065422553787

Computation Completed


Properties will be evaluated at   0.000000,   0.000000,   0.000000 [a0]

Properties computed using the SCF density matrix


 Multipole Moments:

 ------------------------------------------------------------------------------------
     Multipole            Electronic (a.u.)      Nuclear  (a.u.)        Total (a.u.)
 ------------------------------------------------------------------------------------

 L = 1.  Multiply by 2.5417464519 to convert [e a0] to [Debye]
 Dipole X            :          0.0003308           -0.0003229            0.0000079
 Dipole Y            :        -33.1793673           32.7811159           -0.3982513
 Dipole Z            :         -0.0000000            0.0000000           -0.0000000
 Magnitude           :                                                    0.3982513

 ------------------------------------------------------------------------------------

*** tstop() called on cmpsrv002 at Thu Sep 26 15:26:43 2024
Module time:
	user time   =      29.17 seconds =       0.49 minutes
	system time =       3.63 seconds =       0.06 minutes
	total time  =         23 seconds =       0.38 minutes
Total time:
	user time   =      82.82 seconds =       1.38 minutes
	system time =      12.56 seconds =       0.21 minutes
	total time  =         70 seconds =       1.17 minutes

*** tstart() called on cmpsrv002
*** at Thu Sep 26 15:26:43 2024


  //>>>>>>>>>>>>>>>>>>>>>>>>>>>>>>>>>>>//
  //               DFMP2               //
  //<<<<<<<<<<<<<<<<<<<<<<<<<<<<<<<<<<<//

   => Loading Basis Set <=

    Name: (THIS_BASIS AUX)
    Role: RIFIT
    Keyword: DF_BASIS_MP2
    atoms 1, 4-6 entry H          line    30 file /home/vance/anaconda3/envs/p4env/share/psi4/basis/aug-cc-pvqz-ri.gbs 
    atoms 2      entry BR         line  1518 file /home/vance/anaconda3/envs/p4env/share/psi4/basis/aug-cc-pvqz-ri.gbs 
    atoms 3      entry N          line   258 file /home/vance/anaconda3/envs/p4env/share/psi4/basis/aug-cc-pvqz-ri.gbs 

	 --------------------------------------------------------
	                          DF-MP2                         
	      2nd-Order Density-Fitted Moller-Plesset Theory     
	              RMP2 Wavefunction,   4 Threads             
	                                                         
	        Rob Parrish, Justin Turney, Andy Simmonett,      
	           Ed Hohenstein, and C. David Sherrill          
	 --------------------------------------------------------

   => Auxiliary Basis Set <=

  Basis Set: (THIS_BASIS AUX)
    Blend: AUG-CC-PVQZ-RI
    Number of shells: 168
    Number of basis functions: 750
    Number of Cartesian functions: 1044
    Spherical Harmonics?: true
    Max angular momentum: 6

	 --------------------------------------------------------
	                 NBF =   357, NAUX =   750
	 --------------------------------------------------------
	   CLASS    FOCC     OCC    AOCC    AVIR     VIR    FVIR
	   PAIRS       0      18      18     339     339       0
	 --------------------------------------------------------

	 Will attempt to load fitting metric from file 97.

	-----------------------------------------------------------
	 ==================> DF-MP2 Energies <==================== 
	-----------------------------------------------------------
	 Reference Energy          =   -2573.0467065422553787 [Eh]
	 Singles Energy            =      -0.0000000000000000 [Eh]
	 Same-Spin Energy          =      -0.1186957696808607 [Eh]
	 Opposite-Spin Energy      =      -0.2871271500188793 [Eh]
	 Correlation Energy        =      -0.4058229196997400 [Eh]
	 Total Energy              =   -2573.4525294619552369 [Eh]
	-----------------------------------------------------------
	 ================> DF-SCS-MP2 Energies <================== 
	-----------------------------------------------------------
	 SCS Same-Spin Scale       =       0.3333333333333333 [-]
	 SCS Opposite-Spin Scale   =       1.2000000000000000 [-]
	 SCS Same-Spin Energy      =      -0.0395652565602869 [Eh]
	 SCS Opposite-Spin Energy  =      -0.3445525800226552 [Eh]
	 SCS Correlation Energy    =      -0.3841178365829421 [Eh]
	 SCS Total Energy          =   -2573.4308243788382242 [Eh]
	-----------------------------------------------------------


*** tstop() called on cmpsrv002 at Thu Sep 26 15:27:26 2024
Module time:
	user time   =       9.75 seconds =       0.16 minutes
	system time =       1.20 seconds =       0.02 minutes
	total time  =         43 seconds =       0.72 minutes
Total time:
	user time   =      92.58 seconds =       1.54 minutes
	system time =      13.76 seconds =       0.23 minutes
	total time  =        113 seconds =       1.88 minutes

  //>>>>>>>>>>>>>>>>>>>>>>>>>>>>>>>>>>>//
  //            Monomer B HF           //
  //<<<<<<<<<<<<<<<<<<<<<<<<<<<<<<<<<<<//

   => Libint2 <=

    Primary   basis highest AM E, G, H:  6, 6, 3
    Auxiliary basis highest AM E, G, H:  7, 7, 4
    Onebody   basis highest AM E, G, H:  -, -, -
    Solid Harmonics ordering:            Gaussian

*** tstart() called on cmpsrv002
*** at Thu Sep 26 15:27:26 2024

   => Loading Basis Set <=

    Name: THIS_BASIS
    Role: ORBITAL
    Keyword: BASIS
    atoms 1, 4-6 entry H          line    40 file /home/vance/anaconda3/envs/p4env/share/psi4/basis/aug-cc-pvqz.gbs 
    atoms 2      entry BR         line  5448 file /home/vance/anaconda3/envs/p4env/share/psi4/basis/aug-cc-pvqz.gbs 
    atoms 3      entry N          line   363 file /home/vance/anaconda3/envs/p4env/share/psi4/basis/aug-cc-pvqz.gbs 


         ---------------------------------------------------------
                                   SCF
               by Justin Turney, Rob Parrish, Andy Simmonett
                          and Daniel G. A. Smith
                              RHF Reference
                        4 Threads,   7629 MiB Core
         ---------------------------------------------------------

  ==> Geometry <==

    Molecular point group: c1
    Full point group: C1

    Geometry (in Angstrom), charge = 0, multiplicity = 1:

       Center              X                  Y                   Z               Mass       
    ------------   -----------------  -----------------  -----------------  -----------------
      Gh(H)           0.000024419638    -0.990296681042     0.000000000000     1.007825032230
      Gh(BR)         -0.000005580362     0.523923318958     0.000000000000    78.918337600000
         N            0.000024419638    -2.307186681042     0.000000000000    14.003074004430
         H           -0.474355580362    -2.659656681042     0.821650000000     1.007825032230
         H           -0.474355580362    -2.659656681042    -0.821650000000     1.007825032230
         H            0.948784419638    -2.659656681042     0.000000000000     1.007825032230

  Running in c1 symmetry.

  Rotational constants: A =      6.19409  B =      0.14055  C =      0.14055 [cm^-1]
  Rotational constants: A = 185694.14444  B =   4213.62765  C =   4213.62762 [MHz]
  Nuclear repulsion =   11.945746185352997

  Charge       = 0
  Multiplicity = 1
  Electrons    = 10
  Nalpha       = 5
  Nbeta        = 5

  ==> Algorithm <==

  SCF Algorithm Type is DF.
  DIIS enabled.
  MOM disabled.
  Fractional occupation disabled.
  Guess Type is SAD.
  Energy threshold   = 1.00e-08
  Density threshold  = 1.00e-08
  Integral threshold = 1.00e-12

  ==> Primary Basis <==

  Basis Set: THIS_BASIS
    Blend: AUG-CC-PVQZ
    Number of shells: 101
    Number of basis functions: 357
    Number of Cartesian functions: 444
    Spherical Harmonics?: true
    Max angular momentum: 4

   => Loading Basis Set <=

    Name: (THIS_BASIS AUX)
    Role: JKFIT
    Keyword: DF_BASIS_SCF
    atoms 1, 4-6 entry H          line    70 file /home/vance/anaconda3/envs/p4env/share/psi4/basis/aug-cc-pvqz-jkfit.gbs 
    atoms 2      entry BR         line  1612 file /home/vance/anaconda3/envs/p4env/share/psi4/basis/aug-cc-pvqz-jkfit.gbs 
    atoms 3      entry N          line   248 file /home/vance/anaconda3/envs/p4env/share/psi4/basis/aug-cc-pvqz-jkfit.gbs 

  ==> Integral Setup <==

  ==> DiskDFJK: Density-Fitted J/K Matrices <==

    J tasked:                  Yes
    K tasked:                  Yes
    wK tasked:                  No
    OpenMP threads:              4
    Integrals threads:           4
    Memory [MiB]:             5722
    Algorithm:                Core
    Integral Cache:           LOAD
    Schwarz Cutoff:          1E-12
    Fitting Condition:       1E-10

   => Auxiliary Basis Set <=

  Basis Set: (THIS_BASIS AUX)
    Blend: AUG-CC-PVQZ-JKFIT
    Number of shells: 166
    Number of basis functions: 716
    Number of Cartesian functions: 973
    Spherical Harmonics?: true
    Max angular momentum: 5

  Minimum eigenvalue in the overlap matrix is 5.7143345017E-06.
  Reciprocal condition number of the overlap matrix is 4.5036668208E-07.
    Using symmetric orthogonalization.

  ==> Pre-Iterations <==

  SCF Guess: Superposition of Atomic Densities via on-the-fly atomic UHF (no occupation information).

   -------------------------
    Irrep   Nso     Nmo    
   -------------------------
     A        357     357 
   -------------------------
    Total     357     357
   -------------------------

  ==> Iterations <==

                           Total Energy        Delta E     RMS |[F,P]|

   @DF-RHF iter SAD:   -55.64105076921526   -5.56411e+01   0.00000e+00 
   @DF-RHF iter   1:   -56.12632155632990   -4.85271e-01   1.30911e-03 ADIIS/DIIS
   @DF-RHF iter   2:   -56.19507415148097   -6.87526e-02   7.58795e-04 ADIIS/DIIS
   @DF-RHF iter   3:   -56.22329657420498   -2.82224e-02   6.89003e-05 DIIS
   @DF-RHF iter   4:   -56.22393220461969   -6.35630e-04   1.28532e-05 DIIS
   @DF-RHF iter   5:   -56.22395330857005   -2.11040e-05   2.38383e-06 DIIS
   @DF-RHF iter   6:   -56.22395454621702   -1.23765e-06   6.32305e-07 DIIS
   @DF-RHF iter   7:   -56.22395463340717   -8.71902e-08   1.40224e-07 DIIS
   @DF-RHF iter   8:   -56.22395463793510   -4.52793e-09   2.09629e-08 DIIS
   @DF-RHF iter   9:   -56.22395463803627   -1.01167e-10   5.65992e-09 DIIS
  Energy and wave function converged.


  ==> Post-Iterations <==

    Orbital Energies [Eh]
    ---------------------

    Doubly Occupied:                                                      

       1A    -15.538879     2A     -1.139032     3A     -0.631519  
       4A     -0.631519     5A     -0.424224  

    Virtual:                                                              

       6A      0.024677     7A      0.041124     8A      0.043067  
       9A      0.043067    10A      0.081380    11A      0.082151  
      12A      0.082151    13A      0.112164    14A      0.136270  
      15A      0.136270    16A      0.136354    17A      0.154241  
      18A      0.179665    19A      0.179665    20A      0.211701  
      21A      0.211702    22A      0.249141    23A      0.262155  
      24A      0.262155    25A      0.265751    26A      0.271785  
      27A      0.271786    28A      0.282969    29A      0.289285  
      30A      0.313000    31A      0.313000    32A      0.333848  
      33A      0.341870    34A      0.341870    35A      0.351128  
      36A      0.382061    37A      0.387623    38A      0.387625  
      39A      0.419090    40A      0.419091    41A      0.450901  
      42A      0.456859    43A      0.456859    44A      0.525416  
      45A      0.546172    46A      0.546180    47A      0.554784  
      48A      0.554791    49A      0.567188    50A      0.583937  
      51A      0.651478    52A      0.667411    53A      0.667413  
      54A      0.677175    55A      0.704950    56A      0.723918  
      57A      0.723918    58A      0.727048    59A      0.737476  
      60A      0.751946    61A      0.751949    62A      0.772331  
      63A      0.772332    64A      0.780095    65A      0.782633  
      66A      0.782710    67A      0.782710    68A      0.794774  
      69A      0.794774    70A      0.798786    71A      0.861554  
      72A      0.861555    73A      0.883366    74A      0.894454  
      75A      0.894455    76A      0.926784    77A      0.926785  
      78A      0.942926    79A      0.942927    80A      0.975155  
      81A      0.982173    82A      0.982174    83A      0.987440  
      84A      1.047348    85A      1.074187    86A      1.074191  
      87A      1.127424    88A      1.127424    89A      1.131548  
      90A      1.252967    91A      1.327340    92A      1.327346  
      93A      1.353880    94A      1.373362    95A      1.416770  
      96A      1.416774    97A      1.442720    98A      1.447819  
      99A      1.447819   100A      1.480267   101A      1.481782  
     102A      1.517362   103A      1.517363   104A      1.572103  
     105A      1.572104   106A      1.580546   107A      1.600678  
     108A      1.600679   109A      1.608838   110A      1.608839  
     111A      1.611540   112A      1.652851   113A      1.656386  
     114A      1.715929   115A      1.715930   116A      1.764628  
     117A      1.764630   118A      1.788307   119A      1.793510  
     120A      1.793510   121A      1.830548   122A      1.862821  
     123A      1.875072   124A      1.875072   125A      1.909281  
     126A      1.915758   127A      1.917373   128A      1.917374  
     129A      1.934581   130A      1.936537   131A      1.936539  
     132A      1.973031   133A      1.973031   134A      2.010712  
     135A      2.010715   136A      2.011836   137A      2.043130  
     138A      2.043133   139A      2.051991   140A      2.066521  
     141A      2.066524   142A      2.083447   143A      2.095741  
     144A      2.095741   145A      2.110072   146A      2.162864  
     147A      2.181995   148A      2.181995   149A      2.259564  
     150A      2.259565   151A      2.288265   152A      2.293636  
     153A      2.356883   154A      2.414878   155A      2.414880  
     156A      2.472624   157A      2.486774   158A      2.486778  
     159A      2.566153   160A      2.614481   161A      2.619895  
     162A      2.619898   163A      2.707411   164A      2.736907  
     165A      2.736912   166A      2.808425   167A      2.854599  
     168A      2.854601   169A      2.920312   170A      2.920313  
     171A      2.933688   172A      2.969376   173A      2.969377  
     174A      3.000769   175A      3.042317   176A      3.042321  
     177A      3.093238   178A      3.162469   179A      3.173684  
     180A      3.173688   181A      3.206693   182A      3.239748  
     183A      3.239750   184A      3.250804   185A      3.334980  
     186A      3.334983   187A      3.434351   188A      3.434358  
     189A      3.483652   190A      3.538846   191A      3.538849  
     192A      3.565944   193A      3.582892   194A      3.582895  
     195A      3.743956   196A      3.746589   197A      3.857526  
     198A      3.857530   199A      3.998158   200A      3.998160  
     201A      4.051524   202A      4.051526   203A      4.077506  
     204A      4.138373   205A      4.207264   206A      4.213304  
     207A      4.213304   208A      4.255478   209A      4.289455  
     210A      4.289456   211A      4.341553   212A      4.341553  
     213A      4.358051   214A      4.386680   215A      4.386953  
     216A      4.547143   217A      4.593508   218A      4.593508  
     219A      4.682656   220A      4.682658   221A      4.694760  
     222A      4.694765   223A      4.765996   224A      4.810803  
     225A      4.810805   226A      4.881159   227A      4.887093  
     228A      4.904643   229A      4.904646   230A      4.929851  
     231A      4.955573   232A      4.955576   233A      5.021733  
     234A      5.021733   235A      5.066133   236A      5.114527  
     237A      5.114529   238A      5.274609   239A      5.278299  
     240A      5.278304   241A      5.366229   242A      5.366230  
     243A      5.439261   244A      5.439262   245A      5.491081  
     246A      5.609702   247A      5.609705   248A      5.698726  
     249A      5.992164   250A      6.147583   251A      6.147585  
     252A      6.166840   253A      6.384325   254A      6.853928  
     255A      6.909973   256A      7.010670   257A      7.010676  
     258A      7.059509   259A      7.059509   260A      7.121655  
     261A      7.138229   262A      7.472713   263A      7.472715  
     264A      7.487573   265A      7.500973   266A      7.684319  
     267A      7.684326   268A      7.712627   269A      7.807798  
     270A      7.807804   271A      7.809351   272A      7.917286  
     273A      7.917294   274A      8.077856   275A      8.077858  
     276A      8.192996   277A      8.192998   278A      8.265684  
     279A      8.354608   280A      8.354609   281A      8.404574  
     282A      8.593889   283A      8.678464   284A      8.685581  
     285A      8.685583   286A      8.794207   287A      8.820060  
     288A      8.820061   289A      8.986020   290A      9.011882  
     291A      9.047316   292A      9.047320   293A      9.079533  
     294A      9.079535   295A      9.118454   296A      9.275172  
     297A      9.275177   298A      9.296636   299A      9.420172  
     300A      9.420173   301A      9.576987   302A      9.576994  
     303A      9.629529   304A      9.629530   305A      9.769440  
     306A      9.799757   307A      9.799758   308A      9.847951  
     309A      9.865128   310A      9.865131   311A      9.918740  
     312A     10.146281   313A     10.146284   314A     10.248561  
     315A     10.414289   316A     10.414290   317A     10.582094  
     318A     10.582094   319A     10.629928   320A     10.629929  
     321A     10.666880   322A     10.908656   323A     11.055750  
     324A     11.116304   325A     11.116304   326A     11.269268  
     327A     11.275346   328A     11.275346   329A     11.921902  
     330A     12.127998   331A     12.235386   332A     12.235387  
     333A     12.502815   334A     12.653878   335A     12.653878  
     336A     13.079894   337A     13.254582   338A     13.254584  
     339A     14.092716   340A     14.715195   341A     14.715197  
     342A     14.972154   343A     15.158663   344A     15.158666  
     345A     15.750373   346A     21.400656   347A     30.144315  
     348A     30.144316   349A     30.927933   350A     30.927938  
     351A     31.127473   352A     38.530846   353A     52.089918  
     354A    139.465981   355A    139.465982   356A    139.637498  
     357A    729.529807  

    Final Occupation by Irrep:
              A 
    DOCC [     5 ]
    NA   [     5 ]
    NB   [     5 ]

  @DF-RHF Final Energy:   -56.22395463803627

   => Energetics <=

    Nuclear Repulsion Energy =             11.9457461853529967
    One-Electron Energy =                 -99.6090545337452085
    Two-Electron Energy =                  31.4393537103559382
    Total Energy =                        -56.2239546380362682

Computation Completed


Properties will be evaluated at   0.000000,   0.000000,   0.000000 [a0]

Properties computed using the SCF density matrix


 Multipole Moments:

 ------------------------------------------------------------------------------------
     Multipole            Electronic (a.u.)      Nuclear  (a.u.)        Total (a.u.)
 ------------------------------------------------------------------------------------

 L = 1.  Multiply by 2.5417464519 to convert [e a0] to [Debye]
 Dipole X            :         -0.0004615            0.0004615           -0.0000000
 Dipole Y            :         45.0002414          -45.5977248           -0.5974833
 Dipole Z            :         -0.0000000            0.0000000           -0.0000000
 Magnitude           :                                                    0.5974833

 ------------------------------------------------------------------------------------

*** tstop() called on cmpsrv002 at Thu Sep 26 15:27:38 2024
Module time:
	user time   =      17.06 seconds =       0.28 minutes
	system time =       1.21 seconds =       0.02 minutes
	total time  =         12 seconds =       0.20 minutes
Total time:
	user time   =     109.65 seconds =       1.83 minutes
	system time =      14.97 seconds =       0.25 minutes
	total time  =        125 seconds =       2.08 minutes

*** tstart() called on cmpsrv002
*** at Thu Sep 26 15:27:38 2024


  //>>>>>>>>>>>>>>>>>>>>>>>>>>>>>>>>>>>//
  //               DFMP2               //
  //<<<<<<<<<<<<<<<<<<<<<<<<<<<<<<<<<<<//

   => Loading Basis Set <=

    Name: (THIS_BASIS AUX)
    Role: RIFIT
    Keyword: DF_BASIS_MP2
    atoms 1, 4-6 entry H          line    30 file /home/vance/anaconda3/envs/p4env/share/psi4/basis/aug-cc-pvqz-ri.gbs 
    atoms 2      entry BR         line  1518 file /home/vance/anaconda3/envs/p4env/share/psi4/basis/aug-cc-pvqz-ri.gbs 
    atoms 3      entry N          line   258 file /home/vance/anaconda3/envs/p4env/share/psi4/basis/aug-cc-pvqz-ri.gbs 

	 --------------------------------------------------------
	                          DF-MP2                         
	      2nd-Order Density-Fitted Moller-Plesset Theory     
	              RMP2 Wavefunction,   4 Threads             
	                                                         
	        Rob Parrish, Justin Turney, Andy Simmonett,      
	           Ed Hohenstein, and C. David Sherrill          
	 --------------------------------------------------------

   => Auxiliary Basis Set <=

  Basis Set: (THIS_BASIS AUX)
    Blend: AUG-CC-PVQZ-RI
    Number of shells: 168
    Number of basis functions: 750
    Number of Cartesian functions: 1044
    Spherical Harmonics?: true
    Max angular momentum: 6

	 --------------------------------------------------------
	                 NBF =   357, NAUX =   750
	 --------------------------------------------------------
	   CLASS    FOCC     OCC    AOCC    AVIR     VIR    FVIR
	   PAIRS       0       5       5     352     352       0
	 --------------------------------------------------------

	 Will attempt to load fitting metric from file 97.

	-----------------------------------------------------------
	 ==================> DF-MP2 Energies <==================== 
	-----------------------------------------------------------
	 Reference Energy          =     -56.2239546380362682 [Eh]
	 Singles Energy            =      -0.0000000000000000 [Eh]
	 Same-Spin Energy          =      -0.0594805324683778 [Eh]
	 Opposite-Spin Energy      =      -0.2254598597170089 [Eh]
	 Correlation Energy        =      -0.2849403921853867 [Eh]
	 Total Energy              =     -56.5088950302216517 [Eh]
	-----------------------------------------------------------
	 ================> DF-SCS-MP2 Energies <================== 
	-----------------------------------------------------------
	 SCS Same-Spin Scale       =       0.3333333333333333 [-]
	 SCS Opposite-Spin Scale   =       1.2000000000000000 [-]
	 SCS Same-Spin Energy      =      -0.0198268441561259 [Eh]
	 SCS Opposite-Spin Energy  =      -0.2705518316604107 [Eh]
	 SCS Correlation Energy    =      -0.2903786758165366 [Eh]
	 SCS Total Energy          =     -56.5143333138528021 [Eh]
	-----------------------------------------------------------


*** tstop() called on cmpsrv002 at Thu Sep 26 15:27:46 2024
Module time:
	user time   =       5.75 seconds =       0.10 minutes
	system time =       0.77 seconds =       0.01 minutes
	total time  =          8 seconds =       0.13 minutes
Total time:
	user time   =     115.40 seconds =       1.92 minutes
	system time =      15.74 seconds =       0.26 minutes
	total time  =        133 seconds =       2.22 minutes
  Constructing Basis Sets for SAPT...

   => Loading Basis Set <=

    Name: (THIS_BASIS AUX)
    Role: RIFIT
    Keyword: DF_BASIS_SAPT
    atoms 1, 4-6 entry H          line    30 file /home/vance/anaconda3/envs/p4env/share/psi4/basis/aug-cc-pvqz-ri.gbs 
    atoms 2      entry BR         line  1518 file /home/vance/anaconda3/envs/p4env/share/psi4/basis/aug-cc-pvqz-ri.gbs 
    atoms 3      entry N          line   258 file /home/vance/anaconda3/envs/p4env/share/psi4/basis/aug-cc-pvqz-ri.gbs 

   => Loading Basis Set <=

    Name: (THIS_BASIS AUX)
    Role: JKFIT
    Keyword: DF_BASIS_ELST
    atoms 1, 4-6 entry H          line    70 file /home/vance/anaconda3/envs/p4env/share/psi4/basis/aug-cc-pvqz-jkfit.gbs 
    atoms 2      entry BR         line  1612 file /home/vance/anaconda3/envs/p4env/share/psi4/basis/aug-cc-pvqz-jkfit.gbs 
    atoms 3      entry N          line   248 file /home/vance/anaconda3/envs/p4env/share/psi4/basis/aug-cc-pvqz-jkfit.gbs 


  //>>>>>>>>>>>>>>>>>>>>>>>>>>>>>>>>>>>//
  //             SAPT2+DMP2            //
  //<<<<<<<<<<<<<<<<<<<<<<<<<<<<<<<<<<<//


*** tstart() called on cmpsrv002
*** at Thu Sep 26 15:27:46 2024

        SAPT2+  
    Ed Hohenstein
     6 June 2009

      Orbital Information
  --------------------------
    NSO        =       357
    NMO        =       357
    NRI        =       750
    NOCC A     =        18
    NOCC B     =         5
    FOCC A     =         0
    FOCC B     =         0
    NVIR A     =       339
    NVIR B     =       352

    Estimated memory usage: 1706.9 MB

    Natural Orbital Cutoff:   1.000E-06
    Disp(T3) Truncation:            Yes
    CCD (vv|vv) Truncation:         Yes
    MBPT T2 Truncation:             Yes

    Monomer A: 224 virtual orbitals dropped
    Monomer B: 183 virtual orbitals dropped

    Elst10,r            =    -0.081933084364 [Eh]
    Exch10 (S^2)        =     0.145483321734 [Eh]
    Exch10              =     0.162225853982 [Eh]
    Ind20,r (A<-B)      =    -0.045552498583 [Eh]
    Ind20,r (B<-A)      =    -0.062415573654 [Eh]
    Ind20,r             =    -0.107968072237 [Eh]
    Exch-Ind20,r (A<-B) =     0.034358824936 [Eh]
    Exch-Ind20,r (B<-A) =     0.029093085472 [Eh]
    Exch-Ind20,r        =     0.063451910408 [Eh]
    Disp20              =    -0.032700615683 [Eh]
    Disp20 (NO)         =    -0.029267225167 [Eh]
    Exch-Disp20         =     0.006329796595 [Eh]
    Elst12,r            =     0.002553677006 [Eh]
    Exch11              =     0.006822043135 [Eh]
    Exch12              =    -0.004118108923 [Eh]
    Ind22               =    -0.003826337789 [Eh]
    Disp21              =     0.003822494067 [Eh]
    Disp22 (SDQ)        =     0.001305612755 [Eh]

    (i =   1 of   5)         55 seconds
    (i =   2 of   5)         85 seconds
    (i =   3 of   5)        112 seconds
    (i =   4 of   5)        138 seconds
    (i =   5 of   5)        163 seconds

    Disp220 (T)         =    -0.002031121549 [Eh]

    (i =   1 of  18)          7 seconds
    (i =   2 of  18)         15 seconds
    (i =   3 of  18)         23 seconds
    (i =   4 of  18)         32 seconds
    (i =   5 of  18)         40 seconds
