
    -----------------------------------------------------------------------
          Psi4: An Open-Source Ab Initio Electronic Structure Package
                               Psi4 1.9.1 release

                         Git: Rev {} zzzzzzz 


    D. G. A. Smith, L. A. Burns, A. C. Simmonett, R. M. Parrish,
    M. C. Schieber, R. Galvelis, P. Kraus, H. Kruse, R. Di Remigio,
    A. Alenaizan, A. M. James, S. Lehtola, J. P. Misiewicz, M. Scheurer,
    R. A. Shaw, J. B. Schriber, Y. Xie, Z. L. Glick, D. A. Sirianni,
    J. S. O'Brien, J. M. Waldrop, A. Kumar, E. G. Hohenstein,
    B. P. Pritchard, B. R. Brooks, H. F. Schaefer III, A. Yu. Sokolov,
    K. Patkowski, A. E. DePrince III, U. Bozkaya, R. A. King,
    F. A. Evangelista, J. M. Turney, T. D. Crawford, C. D. Sherrill,
    J. Chem. Phys. 152(18) 184108 (2020). https://doi.org/10.1063/5.0006002

                            Additional Code Authors
    E. T. Seidl, C. L. Janssen, E. F. Valeev, M. L. Leininger,
    J. F. Gonthier, R. M. Richard, H. R. McAlexander, M. Saitow, X. Wang,
    P. Verma, M. H. Lechner, A. Jiang, S. Behnle, A. G. Heide,
    M. F. Herbst, and D. L. Poole

             Previous Authors, Complete List of Code Contributors,
                       and Citations for Specific Modules
    https://github.com/psi4/psi4/blob/master/codemeta.json
    https://github.com/psi4/psi4/graphs/contributors
    http://psicode.org/psi4manual/master/introduction.html#citing-psifour

    -----------------------------------------------------------------------


    Psi4 started on: Thursday, 26 September 2024 03:25PM

    Process ID: 636596
    Host:       cmpsrv002
    PSIDATADIR: /home/vance/anaconda3/envs/p4env/share/psi4
    Memory:     500.0 MiB
    Threads:    8
    
  ==> Input File <==

--------------------------------------------------------------------------
#charge=0 charge_a=0 charge_b=0 selection_a=1-2 selection_b=3-6 scaling=1.1 benchmark_Eint=-9.461 benchmark_unit=kcal/mol group=XH-N
set_num_threads(4)
memory 8 GB
basis this_basis {
    assign    aug-cc-pVQZ
}

molecule {
     0 1
    --
     0 1
     H        0.00002       -0.93248        0.00000
    Br       -0.00001        0.58174        0.00000
    --
     0 1
     N        0.00003       -2.74321        0.00000
     H       -0.47435       -3.09567        0.82165
     H       -0.47435       -3.09567       -0.82165
     H        0.94878       -3.09568        0.00000
}

set {
    scf_type                DF
    freeze_core             false
    do_ind_exch_sinf        true
    do_disp_exch_sinf       true
}

nrg = energy('sapt2+dmp2')
--------------------------------------------------------------------------
  Threads set to 4 by Python driver.

  Memory set to   7.451 GiB by Python driver.

Scratch directory: /scratch2/vance/psi4/
  SAPT does not make use of molecular symmetry, further calculations in C1 point group.
   => Loading Basis Set <=

    Name: THIS_BASIS
    Role: ORBITAL
    Keyword: BASIS
    atoms 1, 4-6 entry H          line    40 file /home/vance/anaconda3/envs/p4env/share/psi4/basis/aug-cc-pvqz.gbs 
    atoms 2      entry BR         line  5448 file /home/vance/anaconda3/envs/p4env/share/psi4/basis/aug-cc-pvqz.gbs 
    atoms 3      entry N          line   363 file /home/vance/anaconda3/envs/p4env/share/psi4/basis/aug-cc-pvqz.gbs 

   => Loading Basis Set <=

    Name: THIS_BASIS
    Role: ORBITAL
    Keyword: BASIS
    atoms 1, 4-6 entry H          line    40 file /home/vance/anaconda3/envs/p4env/share/psi4/basis/aug-cc-pvqz.gbs 
    atoms 2      entry BR         line  5448 file /home/vance/anaconda3/envs/p4env/share/psi4/basis/aug-cc-pvqz.gbs 
    atoms 3      entry N          line   363 file /home/vance/anaconda3/envs/p4env/share/psi4/basis/aug-cc-pvqz.gbs 


  //>>>>>>>>>>>>>>>>>>>>>>>>>>>>>>>>>>>//
  //              Dimer HF             //
  //<<<<<<<<<<<<<<<<<<<<<<<<<<<<<<<<<<<//

   => Libint2 <=

    Primary   basis highest AM E, G, H:  6, 6, 3
    Auxiliary basis highest AM E, G, H:  7, 7, 4
    Onebody   basis highest AM E, G, H:  -, -, -
    Solid Harmonics ordering:            Gaussian

*** tstart() called on cmpsrv002
*** at Thu Sep 26 15:25:33 2024

   => Loading Basis Set <=

    Name: THIS_BASIS
    Role: ORBITAL
    Keyword: BASIS
    atoms 1, 4-6 entry H          line    40 file /home/vance/anaconda3/envs/p4env/share/psi4/basis/aug-cc-pvqz.gbs 
    atoms 2      entry BR         line  5448 file /home/vance/anaconda3/envs/p4env/share/psi4/basis/aug-cc-pvqz.gbs 
    atoms 3      entry N          line   363 file /home/vance/anaconda3/envs/p4env/share/psi4/basis/aug-cc-pvqz.gbs 


         ---------------------------------------------------------
                                   SCF
               by Justin Turney, Rob Parrish, Andy Simmonett
                          and Daniel G. A. Smith
                              RHF Reference
                        4 Threads,   7629 MiB Core
         ---------------------------------------------------------

  ==> Geometry <==

    Molecular point group: c1
    Full point group: Cs

    Geometry (in Angstrom), charge = 0, multiplicity = 1:

       Center              X                  Y                   Z               Mass       
    ------------   -----------------  -----------------  -----------------  -----------------
         H            0.000022767418    -0.903570165597     0.000000000000     1.007825032230
         BR          -0.000007232582     0.610649834403     0.000000000000    78.918337600000
         N            0.000032767418    -2.714300165597     0.000000000000    14.003074004430
         H           -0.474347232582    -3.066760165597     0.821650000000     1.007825032230
         H           -0.474347232582    -3.066760165597    -0.821650000000     1.007825032230
         H            0.948782767418    -3.066770165597     0.000000000000     1.007825032230

  Running in c1 symmetry.

  Rotational constants: A =      6.19413  B =      0.10329  C =      0.10329 [cm^-1]
  Rotational constants: A = 185695.44928  B =   3096.41554  C =   3096.41519 [MHz]
  Nuclear repulsion =   80.518072404926727

  Charge       = 0
  Multiplicity = 1
  Electrons    = 46
  Nalpha       = 23
  Nbeta        = 23

  ==> Algorithm <==

  SCF Algorithm Type is DF.
  DIIS enabled.
  MOM disabled.
  Fractional occupation disabled.
  Guess Type is SAD.
  Energy threshold   = 1.00e-08
  Density threshold  = 1.00e-08
  Integral threshold = 1.00e-12

  ==> Primary Basis <==

  Basis Set: THIS_BASIS
    Blend: AUG-CC-PVQZ
    Number of shells: 101
    Number of basis functions: 357
    Number of Cartesian functions: 444
    Spherical Harmonics?: true
    Max angular momentum: 4

   => Loading Basis Set <=

    Name: (THIS_BASIS AUX)
    Role: JKFIT
    Keyword: DF_BASIS_SCF
    atoms 1, 4-6 entry H          line    70 file /home/vance/anaconda3/envs/p4env/share/psi4/basis/aug-cc-pvqz-jkfit.gbs 
    atoms 2      entry BR         line  1612 file /home/vance/anaconda3/envs/p4env/share/psi4/basis/aug-cc-pvqz-jkfit.gbs 
    atoms 3      entry N          line   248 file /home/vance/anaconda3/envs/p4env/share/psi4/basis/aug-cc-pvqz-jkfit.gbs 

  ==> Integral Setup <==

  ==> DiskDFJK: Density-Fitted J/K Matrices <==

    J tasked:                  Yes
    K tasked:                  Yes
    wK tasked:                  No
    OpenMP threads:              4
    Integrals threads:           4
    Memory [MiB]:             5722
    Algorithm:                Core
    Integral Cache:           SAVE
    Schwarz Cutoff:          1E-12
    Fitting Condition:       1E-10

   => Auxiliary Basis Set <=

  Basis Set: (THIS_BASIS AUX)
    Blend: AUG-CC-PVQZ-JKFIT
    Number of shells: 166
    Number of basis functions: 716
    Number of Cartesian functions: 973
    Spherical Harmonics?: true
    Max angular momentum: 5

  Minimum eigenvalue in the overlap matrix is 1.2903063453E-05.
  Reciprocal condition number of the overlap matrix is 1.0924320721E-06.
    Using symmetric orthogonalization.

  ==> Pre-Iterations <==

  SCF Guess: Superposition of Atomic Densities via on-the-fly atomic UHF (no occupation information).

   -------------------------
    Irrep   Nso     Nmo    
   -------------------------
     A        357     357 
   -------------------------
    Total     357     357
   -------------------------

  ==> Iterations <==

                           Total Energy        Delta E     RMS |[F,P]|

   @DF-RHF iter SAD: -2626.92999622740899   -2.62693e+03   0.00000e+00 
   @DF-RHF iter   1: -2628.97248647356082   -2.04249e+00   3.67166e-03 DIIS/ADIIS
   @DF-RHF iter   2: -2629.20241021729726   -2.29924e-01   2.04208e-03 DIIS/ADIIS
   @DF-RHF iter   3: -2629.27879902971699   -7.63888e-02   8.41496e-05 DIIS
   @DF-RHF iter   4: -2629.27973935175442   -9.40322e-04   2.35244e-05 DIIS
   @DF-RHF iter   5: -2629.27982544681936   -8.60951e-05   6.42578e-06 DIIS
   @DF-RHF iter   6: -2629.27983222691591   -6.78010e-06   2.36693e-06 DIIS
   @DF-RHF iter   7: -2629.27983292648423   -6.99568e-07   7.39036e-07 DIIS
   @DF-RHF iter   8: -2629.27983301655695   -9.00727e-08   1.18708e-07 DIIS
   @DF-RHF iter   9: -2629.27983301885979   -2.30284e-09   3.34552e-08 DIIS
   @DF-RHF iter  10: -2629.27983301897621   -1.16415e-10   5.74796e-09 DIIS
  Energy and wave function converged.


  ==> Post-Iterations <==

    Orbital Energies [Eh]
    ---------------------

    Doubly Occupied:                                                      

       1A   -489.988700     2A    -65.129211     3A    -58.484333  
       4A    -58.483443     5A    -58.483443     6A    -15.584689  
       7A     -9.802223     8A     -7.412609     9A     -7.408003  
      10A     -7.408003    11A     -3.155742    12A     -3.153035  
      13A     -3.153035    14A     -3.147223    15A     -3.147223  
      16A     -1.187294    17A     -0.979879    18A     -0.676330  
      19A     -0.676330    20A     -0.567839    21A     -0.436523  
      22A     -0.393791    23A     -0.393791  

    Virtual:                                                              

      24A      0.016861    25A      0.037958    26A      0.037958  
      27A      0.048296    28A      0.087622    29A      0.096682  
      30A      0.096682    31A      0.109116    32A      0.126682  
      33A      0.126683    34A      0.136337    35A      0.162709  
      36A      0.165592    37A      0.165592    38A      0.188133  
      39A      0.188133    40A      0.214084    41A      0.247104  
      42A      0.247105    43A      0.265345    44A      0.270488  
      45A      0.289437    46A      0.289437    47A      0.305248  
      48A      0.305248    49A      0.307733    50A      0.323331  
      51A      0.349770    52A      0.349770    53A      0.357296  
      54A      0.371488    55A      0.371488    56A      0.381028  
      57A      0.407941    58A      0.407942    59A      0.416571  
      60A      0.429722    61A      0.429723    62A      0.444604  
      63A      0.504194    64A      0.504197    65A      0.535339  
      66A      0.535341    67A      0.576739    68A      0.592353  
      69A      0.592353    70A      0.604982    71A      0.604984  
      72A      0.628470    73A      0.661355    74A      0.684619  
      75A      0.688221    76A      0.690150    77A      0.690151  
      78A      0.707796    79A      0.718425    80A      0.718426  
      81A      0.726269    82A      0.739020    83A      0.747847  
      84A      0.747847    85A      0.765583    86A      0.783945  
      87A      0.783946    88A      0.840058    89A      0.840058  
      90A      0.859685    91A      0.859689    92A      0.866247  
      93A      0.894485    94A      0.894485    95A      0.905251  
      96A      0.914090    97A      0.942281    98A      0.942282  
      99A      0.974636   100A      1.000550   101A      1.000554  
     102A      1.018283   103A      1.018285   104A      1.073704  
     105A      1.135513   106A      1.145134   107A      1.145135  
     108A      1.189904   109A      1.207068   110A      1.207072  
     111A      1.302519   112A      1.302519   113A      1.336307  
     114A      1.374555   115A      1.390966   116A      1.390966  
     117A      1.413333   118A      1.413335   119A      1.416062  
     120A      1.432246   121A      1.460953   122A      1.484738  
     123A      1.484738   124A      1.507453   125A      1.510175  
     126A      1.510178   127A      1.530905   128A      1.530906  
     129A      1.544403   130A      1.544403   131A      1.547667  
     132A      1.562424   133A      1.600629   134A      1.600633  
     135A      1.613084   136A      1.634181   137A      1.642866  
     138A      1.648209   139A      1.648210   140A      1.686001  
     141A      1.686003   142A      1.732034   143A      1.732036  
     144A      1.786605   145A      1.798334   146A      1.819656  
     147A      1.828859   148A      1.828862   149A      1.854743  
     150A      1.854744   151A      1.877901   152A      1.897535  
     153A      1.897538   154A      1.959012   155A      1.959016  
     156A      1.970187   157A      1.984637   158A      2.003036  
     159A      2.003037   160A      2.004128   161A      2.061655  
     162A      2.061662   163A      2.103825   164A      2.113605  
     165A      2.121107   166A      2.121107   167A      2.162706  
     168A      2.162706   169A      2.175126   170A      2.265009  
     171A      2.324380   172A      2.347284   173A      2.347287  
     174A      2.389595   175A      2.389604   176A      2.410222  
     177A      2.423934   178A      2.460590   179A      2.546503  
     180A      2.546509   181A      2.599770   182A      2.599775  
     183A      2.673282   184A      2.673285   185A      2.690548  
     186A      2.838760   187A      2.838761   188A      2.885415  
     189A      2.894751   190A      2.910279   191A      2.910280  
     192A      2.974350   193A      2.974351   194A      3.025395  
     195A      3.025400   196A      3.040435   197A      3.066392  
     198A      3.113264   199A      3.116131   200A      3.116134  
     201A      3.129318   202A      3.219846   203A      3.219851  
     204A      3.286423   205A      3.286424   206A      3.335346  
     207A      3.373213   208A      3.373221   209A      3.445839  
     210A      3.446511   211A      3.467821   212A      3.467822  
     213A      3.480179   214A      3.518826   215A      3.518826  
     216A      3.577843   217A      3.577847   218A      3.581334  
     219A      3.650548   220A      3.681138   221A      3.702916  
     222A      3.702916   223A      3.711819   224A      3.712408  
     225A      3.717734   226A      3.717736   227A      3.730081  
     228A      3.730086   229A      3.847588   230A      3.847588  
     231A      3.963695   232A      3.988081   233A      3.988082  
     234A      4.105907   235A      4.105910   236A      4.106270  
     237A      4.127145   238A      4.146315   239A      4.146318  
     240A      4.160608   241A      4.160612   242A      4.193664  
     243A      4.235914   244A      4.235918   245A      4.292913  
     246A      4.378954   247A      4.378960   248A      4.408720  
     249A      4.519505   250A      4.534406   251A      4.534416  
     252A      4.783317   253A      4.813744   254A      4.813748  
     255A      4.966430   256A      4.966436   257A      5.082092  
     258A      5.123255   259A      5.123260   260A      5.220574  
     261A      5.220577   262A      5.334931   263A      5.393557  
     264A      5.393559   265A      5.443520   266A      5.490388  
     267A      5.777025   268A      6.671600   269A      6.680462  
     270A      6.835975   271A      6.908812   272A      6.908813  
     273A      6.961495   274A      6.961505   275A      7.041052  
     276A      7.041054   277A      7.208134   278A      7.208139  
     279A      7.289084   280A      7.329587   281A      7.413893  
     282A      7.413899   283A      7.591464   284A      7.652770  
     285A      7.653758   286A      7.711164   287A      7.711167  
     288A      7.808423   289A      7.808432   290A      8.043373  
     291A      8.043379   292A      8.052117   293A      8.157480  
     294A      8.157485   295A      8.314403   296A      8.399017  
     297A      8.399027   298A      8.523528   299A      8.523528  
     300A      8.538269   301A      8.593524   302A      8.613276  
     303A      8.613276   304A      8.740208   305A      8.740213  
     306A      8.866930   307A      8.866931   308A      8.894654  
     309A      8.894656   310A      8.933551   311A      8.937918  
     312A      8.948575   313A      9.010849   314A      9.029056  
     315A      9.103340   316A      9.103350   317A      9.274053  
     318A      9.274057   319A      9.392954   320A      9.392954  
     321A      9.550538   322A      9.551856   323A      9.551861  
     324A      9.671438   325A      9.671442   326A      9.703039  
     327A      9.709825   328A      9.918032   329A      9.921723  
     330A      9.921726   331A     10.103357   332A     10.103365  
     333A     10.224355   334A     10.348325   335A     10.407027  
     336A     10.407027   337A     10.540795   338A     10.540796  
     339A     10.787701   340A     10.840923   341A     11.007150  
     342A     11.007156   343A     11.100535   344A     11.892129  
     345A     12.178738   346A     12.178761   347A     12.275436  
     348A     12.345557   349A     12.345591   350A     13.033674  
     351A     13.133806   352A     13.133823   353A     14.907749  
     354A     15.077668   355A     15.077709   356A     15.097428  
     357A     36.791377  

    Final Occupation by Irrep:
              A 
    DOCC [    23 ]
    NA   [    23 ]
    NB   [    23 ]

  @DF-RHF Final Energy: -2629.27983301897621

   => Energetics <=

    Nuclear Repulsion Energy =             80.5180724049267269
    One-Electron Energy =               -3821.0904272046523147
    Two-Electron Energy =                1111.2925217807492118
    Total Energy =                      -2629.2798330189762055

Computation Completed


Properties will be evaluated at   0.000000,   0.000000,   0.000000 [a0]

Properties computed using the SCF density matrix


 Multipole Moments:

 ------------------------------------------------------------------------------------
     Multipole            Electronic (a.u.)      Nuclear  (a.u.)        Total (a.u.)
 ------------------------------------------------------------------------------------

 L = 1.  Multiply by 2.5417464519 to convert [e a0] to [Debye]
 Dipole X            :         -0.0001503            0.0001650            0.0000147
 Dipole Y            :         12.8071707          -14.6098839           -1.8027132
 Dipole Z            :          0.0000000            0.0000000            0.0000000
 Magnitude           :                                                    1.8027132

 ------------------------------------------------------------------------------------

*** tstop() called on cmpsrv002 at Thu Sep 26 15:26:06 2024
Module time:
	user time   =      39.70 seconds =       0.66 minutes
	system time =       6.52 seconds =       0.11 minutes
	total time  =         33 seconds =       0.55 minutes
Total time:
	user time   =      39.70 seconds =       0.66 minutes
	system time =       6.52 seconds =       0.11 minutes
	total time  =         33 seconds =       0.55 minutes

*** tstart() called on cmpsrv002
*** at Thu Sep 26 15:26:06 2024


  //>>>>>>>>>>>>>>>>>>>>>>>>>>>>>>>>>>>//
  //               DFMP2               //
  //<<<<<<<<<<<<<<<<<<<<<<<<<<<<<<<<<<<//

   => Loading Basis Set <=

    Name: (THIS_BASIS AUX)
    Role: RIFIT
    Keyword: DF_BASIS_MP2
    atoms 1, 4-6 entry H          line    30 file /home/vance/anaconda3/envs/p4env/share/psi4/basis/aug-cc-pvqz-ri.gbs 
    atoms 2      entry BR         line  1518 file /home/vance/anaconda3/envs/p4env/share/psi4/basis/aug-cc-pvqz-ri.gbs 
    atoms 3      entry N          line   258 file /home/vance/anaconda3/envs/p4env/share/psi4/basis/aug-cc-pvqz-ri.gbs 

	 --------------------------------------------------------
	                          DF-MP2                         
	      2nd-Order Density-Fitted Moller-Plesset Theory     
	              RMP2 Wavefunction,   4 Threads             
	                                                         
	        Rob Parrish, Justin Turney, Andy Simmonett,      
	           Ed Hohenstein, and C. David Sherrill          
	 --------------------------------------------------------

   => Auxiliary Basis Set <=

  Basis Set: (THIS_BASIS AUX)
    Blend: AUG-CC-PVQZ-RI
    Number of shells: 168
    Number of basis functions: 750
    Number of Cartesian functions: 1044
    Spherical Harmonics?: true
    Max angular momentum: 6

	 --------------------------------------------------------
	                 NBF =   357, NAUX =   750
	 --------------------------------------------------------
	   CLASS    FOCC     OCC    AOCC    AVIR     VIR    FVIR
	   PAIRS       0      23      23     334     334       0
	 --------------------------------------------------------

	 Will save fitting metric to file 97.

	-----------------------------------------------------------
	 ==================> DF-MP2 Energies <==================== 
	-----------------------------------------------------------
	 Reference Energy          =   -2629.2798330189762055 [Eh]
	 Singles Energy            =      -0.0000000000000000 [Eh]
	 Same-Spin Energy          =      -0.1818876294388926 [Eh]
	 Opposite-Spin Energy      =      -0.5132678314904060 [Eh]
	 Correlation Energy        =      -0.6951554609292986 [Eh]
	 Total Energy              =   -2629.9749884799052779 [Eh]
	-----------------------------------------------------------
	 ================> DF-SCS-MP2 Energies <================== 
	-----------------------------------------------------------
	 SCS Same-Spin Scale       =       0.3333333333333333 [-]
	 SCS Opposite-Spin Scale   =       1.2000000000000000 [-]
	 SCS Same-Spin Energy      =      -0.0606292098129642 [Eh]
	 SCS Opposite-Spin Energy  =      -0.6159213977884872 [Eh]
	 SCS Correlation Energy    =      -0.6765506076014514 [Eh]
	 SCS Total Energy          =   -2629.9563836265774626 [Eh]
	-----------------------------------------------------------


*** tstop() called on cmpsrv002 at Thu Sep 26 15:26:14 2024
Module time:
	user time   =      13.18 seconds =       0.22 minutes
	system time =       1.94 seconds =       0.03 minutes
	total time  =          8 seconds =       0.13 minutes
Total time:
	user time   =      52.88 seconds =       0.88 minutes
	system time =       8.46 seconds =       0.14 minutes
	total time  =         41 seconds =       0.68 minutes

  //>>>>>>>>>>>>>>>>>>>>>>>>>>>>>>>>>>>//
  //            Monomer A HF           //
  //<<<<<<<<<<<<<<<<<<<<<<<<<<<<<<<<<<<//

   => Libint2 <=

    Primary   basis highest AM E, G, H:  6, 6, 3
    Auxiliary basis highest AM E, G, H:  7, 7, 4
    Onebody   basis highest AM E, G, H:  -, -, -
    Solid Harmonics ordering:            Gaussian

*** tstart() called on cmpsrv002
*** at Thu Sep 26 15:26:14 2024

   => Loading Basis Set <=

    Name: THIS_BASIS
    Role: ORBITAL
    Keyword: BASIS
    atoms 1, 4-6 entry H          line    40 file /home/vance/anaconda3/envs/p4env/share/psi4/basis/aug-cc-pvqz.gbs 
    atoms 2      entry BR         line  5448 file /home/vance/anaconda3/envs/p4env/share/psi4/basis/aug-cc-pvqz.gbs 
    atoms 3      entry N          line   363 file /home/vance/anaconda3/envs/p4env/share/psi4/basis/aug-cc-pvqz.gbs 


         ---------------------------------------------------------
                                   SCF
               by Justin Turney, Rob Parrish, Andy Simmonett
                          and Daniel G. A. Smith
                              RHF Reference
                        4 Threads,   7629 MiB Core
         ---------------------------------------------------------

  ==> Geometry <==

    Molecular point group: c1
    Full point group: Cs

    Geometry (in Angstrom), charge = 0, multiplicity = 1:

       Center              X                  Y                   Z               Mass       
    ------------   -----------------  -----------------  -----------------  -----------------
         H            0.000022767418    -0.903570165597     0.000000000000     1.007825032230
         BR          -0.000007232582     0.610649834403     0.000000000000    78.918337600000
      Gh(N)           0.000032767418    -2.714300165597     0.000000000000    14.003074004430
      Gh(H)          -0.474347232582    -3.066760165597     0.821650000000     1.007825032230
      Gh(H)          -0.474347232582    -3.066760165597    -0.821650000000     1.007825032230
      Gh(H)           0.948782767418    -3.066770165597     0.000000000000     1.007825032230

  Running in c1 symmetry.

  Rotational constants: A =      6.19413  B =      0.10329  C =      0.10329 [cm^-1]
  Rotational constants: A = 185695.44928  B =   3096.41554  C =   3096.41519 [MHz]
  Nuclear repulsion =   12.231513498576831

  Charge       = 0
  Multiplicity = 1
  Electrons    = 36
  Nalpha       = 18
  Nbeta        = 18

  ==> Algorithm <==

  SCF Algorithm Type is DF.
  DIIS enabled.
  MOM disabled.
  Fractional occupation disabled.
  Guess Type is SAD.
  Energy threshold   = 1.00e-08
  Density threshold  = 1.00e-08
  Integral threshold = 1.00e-12

  ==> Primary Basis <==

  Basis Set: THIS_BASIS
    Blend: AUG-CC-PVQZ
    Number of shells: 101
    Number of basis functions: 357
    Number of Cartesian functions: 444
    Spherical Harmonics?: true
    Max angular momentum: 4

   => Loading Basis Set <=

    Name: (THIS_BASIS AUX)
    Role: JKFIT
    Keyword: DF_BASIS_SCF
    atoms 1, 4-6 entry H          line    70 file /home/vance/anaconda3/envs/p4env/share/psi4/basis/aug-cc-pvqz-jkfit.gbs 
    atoms 2      entry BR         line  1612 file /home/vance/anaconda3/envs/p4env/share/psi4/basis/aug-cc-pvqz-jkfit.gbs 
    atoms 3      entry N          line   248 file /home/vance/anaconda3/envs/p4env/share/psi4/basis/aug-cc-pvqz-jkfit.gbs 

  ==> Integral Setup <==

  ==> DiskDFJK: Density-Fitted J/K Matrices <==

    J tasked:                  Yes
    K tasked:                  Yes
    wK tasked:                  No
    OpenMP threads:              4
    Integrals threads:           4
    Memory [MiB]:             5722
    Algorithm:                Core
    Integral Cache:           LOAD
    Schwarz Cutoff:          1E-12
    Fitting Condition:       1E-10

   => Auxiliary Basis Set <=

  Basis Set: (THIS_BASIS AUX)
    Blend: AUG-CC-PVQZ-JKFIT
    Number of shells: 166
    Number of basis functions: 716
    Number of Cartesian functions: 973
    Spherical Harmonics?: true
    Max angular momentum: 5

  Minimum eigenvalue in the overlap matrix is 1.2903063453E-05.
  Reciprocal condition number of the overlap matrix is 1.0924320721E-06.
    Using symmetric orthogonalization.

  ==> Pre-Iterations <==

  SCF Guess: Superposition of Atomic Densities via on-the-fly atomic UHF (no occupation information).

   -------------------------
    Irrep   Nso     Nmo    
   -------------------------
     A        357     357 
   -------------------------
    Total     357     357
   -------------------------

  ==> Iterations <==

                           Total Energy        Delta E     RMS |[F,P]|

   @DF-RHF iter SAD: -2571.14384266278967   -2.57114e+03   0.00000e+00 
   @DF-RHF iter   1: -2572.80827644019928   -1.66443e+00   3.47729e-03 DIIS/ADIIS
   @DF-RHF iter   2: -2572.98086848056892   -1.72592e-01   1.96489e-03 DIIS/ADIIS
   @DF-RHF iter   3: -2573.04615679344124   -6.52883e-02   5.46526e-05 DIIS
   @DF-RHF iter   4: -2573.04662329039775   -4.66497e-04   1.87973e-05 DIIS
   @DF-RHF iter   5: -2573.04669665375332   -7.33634e-05   4.76629e-06 DIIS
   @DF-RHF iter   6: -2573.04670095285155   -4.29910e-06   8.38843e-07 DIIS
   @DF-RHF iter   7: -2573.04670103763647   -8.47849e-08   2.06629e-07 DIIS
   @DF-RHF iter   8: -2573.04670104469642   -7.05995e-09   2.86368e-08 DIIS
   @DF-RHF iter   9: -2573.04670104483239   -1.35969e-10   4.42915e-09 DIIS
  Energy and wave function converged.


  ==> Post-Iterations <==

    Orbital Energies [Eh]
    ---------------------

    Doubly Occupied:                                                      

       1A   -490.039741     2A    -65.179486     3A    -58.534967  
       4A    -58.533512     5A    -58.533512     6A     -9.851931  
       7A     -7.463421     8A     -7.456725     9A     -7.456725  
      10A     -3.207250    11A     -3.203531    12A     -3.203531  
      13A     -3.194910    14A     -3.194910    15A     -1.020563  
      16A     -0.564752    17A     -0.433628    18A     -0.433628  

    Virtual:                                                              

      19A      0.018720    20A      0.041830    21A      0.042445  
      22A      0.042445    23A      0.076712    24A      0.081299  
      25A      0.088726    26A      0.088726    27A      0.121827  
      28A      0.121827    29A      0.124533    30A      0.148883  
      31A      0.171408    32A      0.180856    33A      0.180856  
      34A      0.203222    35A      0.203223    36A      0.233748  
      37A      0.233748    38A      0.258267    39A      0.276783  
      40A      0.277794    41A      0.277794    42A      0.284647  
      43A      0.293676    44A      0.293676    45A      0.293991  
      46A      0.340331    47A      0.340331    48A      0.343193  
      49A      0.374849    50A      0.395890    51A      0.395893  
      52A      0.405507    53A      0.405507    54A      0.405546  
      55A      0.451685    56A      0.451685    57A      0.458692  
      58A      0.535688    59A      0.546007    60A      0.546009  
      61A      0.569234    62A      0.569235    63A      0.574962  
      64A      0.587508    65A      0.587510    66A      0.614708  
      67A      0.614710    68A      0.632270    69A      0.640329  
      70A      0.640329    71A      0.649697    72A      0.658478  
      73A      0.688799    74A      0.688799    75A      0.714107  
      76A      0.729093    77A      0.751677    78A      0.755594  
      79A      0.766109    80A      0.766110    81A      0.835579  
      82A      0.835580    83A      0.842873    84A      0.859506  
      85A      0.859507    86A      0.868411    87A      0.868414  
      88A      0.886530    89A      0.922120    90A      0.954397  
      91A      0.959293    92A      0.959294    93A      0.974593  
      94A      0.974594    95A      1.044910    96A      1.044911  
      97A      1.059493    98A      1.087284    99A      1.105653  
     100A      1.105654   101A      1.131235   102A      1.134222  
     103A      1.134222   104A      1.236429   105A      1.252220  
     106A      1.252220   107A      1.266243   108A      1.266243  
     109A      1.361359   110A      1.369451   111A      1.369451  
     112A      1.384092   113A      1.405377   114A      1.405379  
     115A      1.452796   116A      1.452797   117A      1.453460  
     118A      1.476478   119A      1.499084   120A      1.510092  
     121A      1.514683   122A      1.514683   123A      1.534559  
     124A      1.534560   125A      1.563324   126A      1.597553  
     127A      1.597557   128A      1.602736   129A      1.604457  
     130A      1.615634   131A      1.639822   132A      1.639824  
     133A      1.650062   134A      1.650063   135A      1.736937  
     136A      1.754668   137A      1.754668   138A      1.818021  
     139A      1.830711   140A      1.839697   141A      1.839699  
     142A      1.854554   143A      1.854556   144A      1.863747  
     145A      1.896628   146A      1.896629   147A      1.925291  
     148A      1.970621   149A      1.970626   150A      2.013971  
     151A      2.017756   152A      2.017758   153A      2.024957  
     154A      2.060925   155A      2.060926   156A      2.063872  
     157A      2.112275   158A      2.112276   159A      2.146321  
     160A      2.157155   161A      2.174051   162A      2.174054  
     163A      2.206509   164A      2.230059   165A      2.234887  
     166A      2.234890   167A      2.324583   168A      2.352436  
     169A      2.352437   170A      2.373489   171A      2.373490  
     172A      2.393447   173A      2.461057   174A      2.520942  
     175A      2.520948   176A      2.624949   177A      2.624949  
     178A      2.666050   179A      2.678163   180A      2.678166  
     181A      2.742829   182A      2.828577   183A      2.828579  
     184A      2.848061   185A      3.041305   186A      3.041306  
     187A      3.070024   188A      3.084843   189A      3.084843  
     190A      3.195190   191A      3.201801   192A      3.253262  
     193A      3.253263   194A      3.282729   195A      3.289991  
     196A      3.289994   197A      3.311896   198A      3.361602  
     199A      3.398283   200A      3.398286   201A      3.406956  
     202A      3.408183   203A      3.417019   204A      3.417021  
     205A      3.455075   206A      3.459558   207A      3.459559  
     208A      3.503932   209A      3.503933   210A      3.585924  
     211A      3.585932   212A      3.657406   213A      3.665552  
     214A      3.665688   215A      3.665688   216A      3.678976  
     217A      3.708510   218A      3.708511   219A      3.779519  
     220A      3.805213   221A      3.805213   222A      3.809586  
     223A      3.853607   224A      3.853609   225A      3.894322  
     226A      3.894325   227A      4.011563   228A      4.011564  
     229A      4.060108   230A      4.061502   231A      4.061505  
     232A      4.120397   233A      4.167183   234A      4.167184  
     235A      4.251796   236A      4.251800   237A      4.265380  
     238A      4.374624   239A      4.405810   240A      4.405811  
     241A      4.419449   242A      4.481283   243A      4.481297  
     244A      4.503533   245A      4.592527   246A      4.592542  
     247A      4.630309   248A      4.806085   249A      4.806088  
     250A      4.956544   251A      5.148521   252A      5.148523  
     253A      5.256163   254A      5.418481   255A      5.496113  
     256A      5.496122   257A      5.641355   258A      5.794902  
     259A      5.794906   260A      5.859535   261A      5.954080  
     262A      5.954085   263A      6.095351   264A      6.451703  
     265A      6.572481   266A      6.572493   267A      6.640316  
     268A      6.649132   269A      7.010709   270A      7.010710  
     271A      7.107415   272A      7.133639   273A      7.133642  
     274A      7.261803   275A      7.261812   276A      7.336604  
     277A      7.336610   278A      7.513958   279A      7.763784  
     280A      7.774793   281A      8.186257   282A      8.208895  
     283A      8.208896   284A      8.253651   285A      8.253652  
     286A      8.300492   287A      8.300501   288A      8.305771  
     289A      8.457145   290A      8.499074   291A      8.499077  
     292A      8.569654   293A      8.569655   294A      8.661058  
     295A      8.661061   296A      8.738985   297A      8.738989  
     298A      8.818297   299A      8.901377   300A      9.094154  
     301A      9.094161   302A      9.191818   303A      9.255603  
     304A      9.255618   305A      9.299928   306A      9.310153  
     307A      9.310154   308A      9.499439   309A      9.499448  
     310A      9.511362   311A      9.569108   312A      9.592977  
     313A      9.657196   314A      9.657205   315A      9.821527  
     316A      9.945986   317A     10.097241   318A     10.097245  
     319A     10.198380   320A     10.198388   321A     10.282336  
     322A     10.464502   323A     10.532636   324A     10.532642  
     325A     10.700252   326A     10.752030   327A     10.752037  
     328A     10.858148   329A     10.858150   330A     10.893027  
     331A     11.371496   332A     11.371507   333A     11.420560  
     334A     12.035277   335A     12.035283   336A     12.139374  
     337A     12.407052   338A     12.558628   339A     12.558649  
     340A     13.170564   341A     13.170574   342A     13.378221  
     343A     14.025499   344A     14.292442   345A     14.492189  
     346A     14.492221   347A     14.708436   348A     14.708437  
     349A     14.974621   350A     16.062888   351A     16.062898  
     352A     16.443130   353A     18.373355   354A     19.976959  
     355A     21.885907   356A     21.885951   357A     96.452082  

    Final Occupation by Irrep:
              A 
    DOCC [    18 ]
    NA   [    18 ]
    NB   [    18 ]

  @DF-RHF Final Energy: -2573.04670104483239

   => Energetics <=

    Nuclear Repulsion Energy =             12.2315134985768310
    One-Electron Energy =               -3607.5429872931190403
    Two-Electron Energy =                1022.2647727497094365
    Total Energy =                      -2573.0467010448328438

Computation Completed


Properties will be evaluated at   0.000000,   0.000000,   0.000000 [a0]

Properties computed using the SCF density matrix


 Multipole Moments:

 ------------------------------------------------------------------------------------
     Multipole            Electronic (a.u.)      Nuclear  (a.u.)        Total (a.u.)
 ------------------------------------------------------------------------------------

 L = 1.  Multiply by 2.5417464519 to convert [e a0] to [Debye]
 Dipole X            :          0.0004432           -0.0004353            0.0000079
 Dipole Y            :        -39.0793589           38.6811329           -0.3982260
 Dipole Z            :         -0.0000000            0.0000000           -0.0000000
 Magnitude           :                                                    0.3982260

 ------------------------------------------------------------------------------------

*** tstop() called on cmpsrv002 at Thu Sep 26 15:26:31 2024
Module time:
	user time   =      24.50 seconds =       0.41 minutes
	system time =       3.63 seconds =       0.06 minutes
	total time  =         17 seconds =       0.28 minutes
Total time:
	user time   =      77.40 seconds =       1.29 minutes
	system time =      12.09 seconds =       0.20 minutes
	total time  =         58 seconds =       0.97 minutes

*** tstart() called on cmpsrv002
*** at Thu Sep 26 15:26:31 2024


  //>>>>>>>>>>>>>>>>>>>>>>>>>>>>>>>>>>>//
  //               DFMP2               //
  //<<<<<<<<<<<<<<<<<<<<<<<<<<<<<<<<<<<//

   => Loading Basis Set <=

    Name: (THIS_BASIS AUX)
    Role: RIFIT
    Keyword: DF_BASIS_MP2
    atoms 1, 4-6 entry H          line    30 file /home/vance/anaconda3/envs/p4env/share/psi4/basis/aug-cc-pvqz-ri.gbs 
    atoms 2      entry BR         line  1518 file /home/vance/anaconda3/envs/p4env/share/psi4/basis/aug-cc-pvqz-ri.gbs 
    atoms 3      entry N          line   258 file /home/vance/anaconda3/envs/p4env/share/psi4/basis/aug-cc-pvqz-ri.gbs 

	 --------------------------------------------------------
	                          DF-MP2                         
	      2nd-Order Density-Fitted Moller-Plesset Theory     
	              RMP2 Wavefunction,   4 Threads             
	                                                         
	        Rob Parrish, Justin Turney, Andy Simmonett,      
	           Ed Hohenstein, and C. David Sherrill          
	 --------------------------------------------------------

   => Auxiliary Basis Set <=

  Basis Set: (THIS_BASIS AUX)
    Blend: AUG-CC-PVQZ-RI
    Number of shells: 168
    Number of basis functions: 750
    Number of Cartesian functions: 1044
    Spherical Harmonics?: true
    Max angular momentum: 6

	 --------------------------------------------------------
	                 NBF =   357, NAUX =   750
	 --------------------------------------------------------
	   CLASS    FOCC     OCC    AOCC    AVIR     VIR    FVIR
	   PAIRS       0      18      18     339     339       0
	 --------------------------------------------------------

	 Will attempt to load fitting metric from file 97.

	-----------------------------------------------------------
	 ==================> DF-MP2 Energies <==================== 
	-----------------------------------------------------------
	 Reference Energy          =   -2573.0467010448323890 [Eh]
	 Singles Energy            =      -0.0000000000000000 [Eh]
	 Same-Spin Energy          =      -0.1179112948508283 [Eh]
	 Opposite-Spin Energy      =      -0.2853746667308269 [Eh]
	 Correlation Energy        =      -0.4032859615816552 [Eh]
	 Total Energy              =   -2573.4499870064141760 [Eh]
	-----------------------------------------------------------
	 ================> DF-SCS-MP2 Energies <================== 
	-----------------------------------------------------------
	 SCS Same-Spin Scale       =       0.3333333333333333 [-]
	 SCS Opposite-Spin Scale   =       1.2000000000000000 [-]
	 SCS Same-Spin Energy      =      -0.0393037649502761 [Eh]
	 SCS Opposite-Spin Energy  =      -0.3424496000769923 [Eh]
	 SCS Correlation Energy    =      -0.3817533650272684 [Eh]
	 SCS Total Energy          =   -2573.4284544098595688 [Eh]
	-----------------------------------------------------------


*** tstop() called on cmpsrv002 at Thu Sep 26 15:26:41 2024
Module time:
	user time   =       9.76 seconds =       0.16 minutes
	system time =       1.46 seconds =       0.02 minutes
	total time  =         10 seconds =       0.17 minutes
Total time:
	user time   =      87.17 seconds =       1.45 minutes
	system time =      13.55 seconds =       0.23 minutes
	total time  =         68 seconds =       1.13 minutes

  //>>>>>>>>>>>>>>>>>>>>>>>>>>>>>>>>>>>//
  //            Monomer B HF           //
  //<<<<<<<<<<<<<<<<<<<<<<<<<<<<<<<<<<<//

   => Libint2 <=

    Primary   basis highest AM E, G, H:  6, 6, 3
    Auxiliary basis highest AM E, G, H:  7, 7, 4
    Onebody   basis highest AM E, G, H:  -, -, -
    Solid Harmonics ordering:            Gaussian

*** tstart() called on cmpsrv002
*** at Thu Sep 26 15:26:41 2024

   => Loading Basis Set <=

    Name: THIS_BASIS
    Role: ORBITAL
    Keyword: BASIS
    atoms 1, 4-6 entry H          line    40 file /home/vance/anaconda3/envs/p4env/share/psi4/basis/aug-cc-pvqz.gbs 
    atoms 2      entry BR         line  5448 file /home/vance/anaconda3/envs/p4env/share/psi4/basis/aug-cc-pvqz.gbs 
    atoms 3      entry N          line   363 file /home/vance/anaconda3/envs/p4env/share/psi4/basis/aug-cc-pvqz.gbs 


         ---------------------------------------------------------
                                   SCF
               by Justin Turney, Rob Parrish, Andy Simmonett
                          and Daniel G. A. Smith
                              RHF Reference
                        4 Threads,   7629 MiB Core
         ---------------------------------------------------------

  ==> Geometry <==

    Molecular point group: c1
    Full point group: Cs

    Geometry (in Angstrom), charge = 0, multiplicity = 1:

       Center              X                  Y                   Z               Mass       
    ------------   -----------------  -----------------  -----------------  -----------------
      Gh(H)           0.000022767418    -0.903570165597     0.000000000000     1.007825032230
      Gh(BR)         -0.000007232582     0.610649834403     0.000000000000    78.918337600000
         N            0.000032767418    -2.714300165597     0.000000000000    14.003074004430
         H           -0.474347232582    -3.066760165597     0.821650000000     1.007825032230
         H           -0.474347232582    -3.066760165597    -0.821650000000     1.007825032230
         H            0.948782767418    -3.066770165597     0.000000000000     1.007825032230

  Running in c1 symmetry.

  Rotational constants: A =      6.19413  B =      0.10329  C =      0.10329 [cm^-1]
  Rotational constants: A = 185695.44928  B =   3096.41554  C =   3096.41519 [MHz]
  Nuclear repulsion =   11.945808662741523

  Charge       = 0
  Multiplicity = 1
  Electrons    = 10
  Nalpha       = 5
  Nbeta        = 5

  ==> Algorithm <==

  SCF Algorithm Type is DF.
  DIIS enabled.
  MOM disabled.
  Fractional occupation disabled.
  Guess Type is SAD.
  Energy threshold   = 1.00e-08
  Density threshold  = 1.00e-08
  Integral threshold = 1.00e-12

  ==> Primary Basis <==

  Basis Set: THIS_BASIS
    Blend: AUG-CC-PVQZ
    Number of shells: 101
    Number of basis functions: 357
    Number of Cartesian functions: 444
    Spherical Harmonics?: true
    Max angular momentum: 4

   => Loading Basis Set <=

    Name: (THIS_BASIS AUX)
    Role: JKFIT
    Keyword: DF_BASIS_SCF
    atoms 1, 4-6 entry H          line    70 file /home/vance/anaconda3/envs/p4env/share/psi4/basis/aug-cc-pvqz-jkfit.gbs 
    atoms 2      entry BR         line  1612 file /home/vance/anaconda3/envs/p4env/share/psi4/basis/aug-cc-pvqz-jkfit.gbs 
    atoms 3      entry N          line   248 file /home/vance/anaconda3/envs/p4env/share/psi4/basis/aug-cc-pvqz-jkfit.gbs 

  ==> Integral Setup <==

  ==> DiskDFJK: Density-Fitted J/K Matrices <==

    J tasked:                  Yes
    K tasked:                  Yes
    wK tasked:                  No
    OpenMP threads:              4
    Integrals threads:           4
    Memory [MiB]:             5722
    Algorithm:                Core
    Integral Cache:           LOAD
    Schwarz Cutoff:          1E-12
    Fitting Condition:       1E-10

   => Auxiliary Basis Set <=

  Basis Set: (THIS_BASIS AUX)
    Blend: AUG-CC-PVQZ-JKFIT
    Number of shells: 166
    Number of basis functions: 716
    Number of Cartesian functions: 973
    Spherical Harmonics?: true
    Max angular momentum: 5

  Minimum eigenvalue in the overlap matrix is 1.2903063453E-05.
  Reciprocal condition number of the overlap matrix is 1.0924320721E-06.
    Using symmetric orthogonalization.

  ==> Pre-Iterations <==

  SCF Guess: Superposition of Atomic Densities via on-the-fly atomic UHF (no occupation information).

   -------------------------
    Irrep   Nso     Nmo    
   -------------------------
     A        357     357 
   -------------------------
    Total     357     357
   -------------------------

  ==> Iterations <==

                           Total Energy        Delta E     RMS |[F,P]|

   @DF-RHF iter SAD:   -55.64105784036303   -5.56411e+01   0.00000e+00 
   @DF-RHF iter   1:   -56.12631697403480   -4.85259e-01   1.30906e-03 DIIS/ADIIS
   @DF-RHF iter   2:   -56.19507134463696   -6.87544e-02   7.58665e-04 DIIS/ADIIS
   @DF-RHF iter   3:   -56.22329211408820   -2.82208e-02   6.88911e-05 DIIS
   @DF-RHF iter   4:   -56.22392766478337   -6.35551e-04   1.28521e-05 DIIS
   @DF-RHF iter   5:   -56.22394877488559   -2.11101e-05   2.38249e-06 DIIS
   @DF-RHF iter   6:   -56.22395001086244   -1.23598e-06   6.31953e-07 DIIS
   @DF-RHF iter   7:   -56.22395009797910   -8.71167e-08   1.40113e-07 DIIS
   @DF-RHF iter   8:   -56.22395010250395   -4.52485e-09   2.09386e-08 DIIS
   @DF-RHF iter   9:   -56.22395010260496   -1.01011e-10   5.65454e-09 DIIS
  Energy and wave function converged.


  ==> Post-Iterations <==

    Orbital Energies [Eh]
    ---------------------

    Doubly Occupied:                                                      

       1A    -15.538870     2A     -1.139036     3A     -0.631522  
       4A     -0.631522     5A     -0.424224  

    Virtual:                                                              

       6A      0.024901     7A      0.039873     8A      0.043075  
       9A      0.043075    10A      0.080767    11A      0.080767  
      12A      0.081556    13A      0.111547    14A      0.134807  
      15A      0.136980    16A      0.136981    17A      0.145497  
      18A      0.180727    19A      0.180728    20A      0.205569  
      21A      0.205569    22A      0.245030    23A      0.261625  
      24A      0.261625    25A      0.261753    26A      0.265173  
      27A      0.265173    28A      0.282965    29A      0.284287  
      30A      0.305001    31A      0.305001    32A      0.330587  
      33A      0.337655    34A      0.337655    35A      0.348368  
      36A      0.367356    37A      0.386123    38A      0.386125  
      39A      0.409144    40A      0.409145    41A      0.456102  
      42A      0.456421    43A      0.456422    44A      0.512359  
      45A      0.526783    46A      0.526786    47A      0.556292  
      48A      0.556294    49A      0.561827    50A      0.574276  
      51A      0.655535    52A      0.681345    53A      0.697056  
      54A      0.697056    55A      0.709895    56A      0.710272  
      57A      0.717962    58A      0.717963    59A      0.731668  
      60A      0.731670    61A      0.733335    62A      0.759389  
      63A      0.771617    64A      0.771617    65A      0.778307  
      66A      0.778307    67A      0.783425    68A      0.792682  
      69A      0.792683    70A      0.799793    71A      0.832097  
      72A      0.832098    73A      0.877099    74A      0.877100  
      75A      0.883955    76A      0.892376    77A      0.892379  
      78A      0.935281    79A      0.935282    80A      0.948523  
      81A      0.968336    82A      0.968336    83A      0.996878  
      84A      1.023322    85A      1.050618    86A      1.050622  
      87A      1.064319    88A      1.064321    89A      1.100350  
      90A      1.220460    91A      1.286563    92A      1.286567  
      93A      1.299851    94A      1.321951    95A      1.321953  
      96A      1.370242    97A      1.386202    98A      1.445530  
      99A      1.445533   100A      1.462646   101A      1.481144  
     102A      1.489276   103A      1.537853   104A      1.537856  
     105A      1.567710   106A      1.567714   107A      1.576903  
     108A      1.585834   109A      1.585835   110A      1.596732  
     111A      1.596732   112A      1.597312   113A      1.602628  
     114A      1.675289   115A      1.675290   116A      1.681556  
     117A      1.712227   118A      1.712228   119A      1.794416  
     120A      1.794418   121A      1.815907   122A      1.819201  
     123A      1.845965   124A      1.845966   125A      1.852005  
     126A      1.891934   127A      1.891935   128A      1.901316  
     129A      1.911483   130A      1.917294   131A      1.917295  
     132A      1.951277   133A      1.951279   134A      1.986927  
     135A      1.986927   136A      1.987784   137A      2.010941  
     138A      2.010941   139A      2.020526   140A      2.026671  
     141A      2.036549   142A      2.036550   143A      2.069978  
     144A      2.078922   145A      2.078924   146A      2.143881  
     147A      2.143887   148A      2.159257   149A      2.169152  
     150A      2.195911   151A      2.195912   152A      2.239350  
     153A      2.319224   154A      2.340869   155A      2.340869  
     156A      2.352175   157A      2.439888   158A      2.439892  
     159A      2.453120   160A      2.469785   161A      2.523748  
     162A      2.523751   163A      2.532905   164A      2.604856  
     165A      2.604860   166A      2.701815   167A      2.713398  
     168A      2.713406   169A      2.843423   170A      2.843426  
     171A      2.910185   172A      2.932828   173A      2.953921  
     174A      2.953923   175A      3.006009   176A      3.006013  
     177A      3.049525   178A      3.049938   179A      3.049939  
     180A      3.119587   181A      3.154724   182A      3.167097  
     183A      3.167107   184A      3.169310   185A      3.238944  
     186A      3.238947   187A      3.252753   188A      3.325440  
     189A      3.325442   190A      3.398138   191A      3.398146  
     192A      3.511489   193A      3.511498   194A      3.554529  
     195A      3.634803   196A      3.634808   197A      3.675947  
     198A      3.694109   199A      3.807647   200A      3.830385  
     201A      3.830392   202A      4.045496   203A      4.048378  
     204A      4.048381   205A      4.115471   206A      4.115475  
     207A      4.145341   208A      4.229130   209A      4.237289  
     210A      4.237290   211A      4.316743   212A      4.316745  
     213A      4.325309   214A      4.330818   215A      4.330818  
     216A      4.357961   217A      4.358246   218A      4.458431  
     219A      4.510868   220A      4.510876   221A      4.540883  
     222A      4.540887   223A      4.615889   224A      4.637647  
     225A      4.637654   226A      4.779007   227A      4.823372  
     228A      4.823373   229A      4.871025   230A      4.872110  
     231A      4.901544   232A      4.901546   233A      4.924299  
     234A      4.924301   235A      4.953533   236A      5.014613  
     237A      5.014618   238A      5.118925   239A      5.181770  
     240A      5.181772   241A      5.241336   242A      5.241338  
     243A      5.306071   244A      5.306071   245A      5.345872  
     246A      5.437651   247A      5.437653   248A      5.486614  
     249A      5.657695   250A      5.786634   251A      5.902761  
     252A      5.902762   253A      6.327068   254A      6.762379  
     255A      6.870407   256A      6.970998   257A      6.971001  
     258A      6.987447   259A      7.002591   260A      7.003506  
     261A      7.003517   262A      7.371496   263A      7.383165  
     264A      7.398982   265A      7.398986   266A      7.452400  
     267A      7.452405   268A      7.533361   269A      7.533363  
     270A      7.686478   271A      7.694489   272A      7.802448  
     273A      7.802451   274A      7.901815   275A      7.901823  
     276A      8.061189   277A      8.116078   278A      8.116091  
     279A      8.232305   280A      8.232312   281A      8.232707  
     282A      8.359773   283A      8.458500   284A      8.458514  
     285A      8.607645   286A      8.658926   287A      8.658930  
     288A      8.714176   289A      8.875247   290A      8.875250  
     291A      8.908341   292A      8.908342   293A      8.977323  
     294A      8.986904   295A      9.051890   296A      9.084813  
     297A      9.111841   298A      9.111849   299A      9.218579  
     300A      9.218583   301A      9.371439   302A      9.371445  
     303A      9.470338   304A      9.470340   305A      9.583366  
     306A      9.649743   307A      9.649746   308A      9.744927  
     309A      9.797512   310A      9.797517   311A      9.866113  
     312A      9.977332   313A      9.977332   314A     10.002655  
     315A     10.002663   316A     10.120151   317A     10.164659  
     318A     10.164663   319A     10.419369   320A     10.473511  
     321A     10.473512   322A     10.592839   323A     10.592842  
     324A     10.697870   325A     10.886409   326A     11.052233  
     327A     11.052239   328A     11.105458   329A     11.442769  
     330A     11.802747   331A     12.016598   332A     12.223240  
     333A     12.223263   334A     12.338142   335A     12.393506  
     336A     12.393540   337A     13.075869   338A     13.178722  
     339A     13.178739   340A     14.619711   341A     14.619713  
     342A     14.874527   343A     14.991040   344A     15.121271  
     345A     15.121313   346A     20.856997   347A     30.077741  
     348A     30.077742   349A     30.563640   350A     30.563641  
     351A     31.059478   352A     36.844836   353A     51.917130  
     354A    139.393182   355A    139.393183   356A    139.585524  
     357A    728.951836  

    Final Occupation by Irrep:
              A 
    DOCC [     5 ]
    NA   [     5 ]
    NB   [     5 ]

  @DF-RHF Final Energy:   -56.22395010260496

   => Energetics <=

    Nuclear Repulsion Energy =             11.9458086627415234
    One-Electron Energy =                 -99.6091689916516287
    Two-Electron Energy =                  31.4394102263051387
    Total Energy =                        -56.2239501026049595

Computation Completed


Properties will be evaluated at   0.000000,   0.000000,   0.000000 [a0]

Properties computed using the SCF density matrix


 Multipole Moments:

 ------------------------------------------------------------------------------------
     Multipole            Electronic (a.u.)      Nuclear  (a.u.)        Total (a.u.)
 ------------------------------------------------------------------------------------

 L = 1.  Multiply by 2.5417464519 to convert [e a0] to [Debye]
 Dipole X            :         -0.0006046            0.0006003           -0.0000043
 Dipole Y            :         52.6934888          -53.2910169           -0.5975281
 Dipole Z            :          0.0000000            0.0000000            0.0000000
 Magnitude           :                                                    0.5975281

 ------------------------------------------------------------------------------------

*** tstop() called on cmpsrv002 at Thu Sep 26 15:26:51 2024
Module time:
	user time   =      16.94 seconds =       0.28 minutes
	system time =       1.65 seconds =       0.03 minutes
	total time  =         10 seconds =       0.17 minutes
Total time:
	user time   =     104.13 seconds =       1.74 minutes
	system time =      15.20 seconds =       0.25 minutes
	total time  =         78 seconds =       1.30 minutes

*** tstart() called on cmpsrv002
*** at Thu Sep 26 15:26:51 2024


  //>>>>>>>>>>>>>>>>>>>>>>>>>>>>>>>>>>>//
  //               DFMP2               //
  //<<<<<<<<<<<<<<<<<<<<<<<<<<<<<<<<<<<//

   => Loading Basis Set <=

    Name: (THIS_BASIS AUX)
    Role: RIFIT
    Keyword: DF_BASIS_MP2
    atoms 1, 4-6 entry H          line    30 file /home/vance/anaconda3/envs/p4env/share/psi4/basis/aug-cc-pvqz-ri.gbs 
    atoms 2      entry BR         line  1518 file /home/vance/anaconda3/envs/p4env/share/psi4/basis/aug-cc-pvqz-ri.gbs 
    atoms 3      entry N          line   258 file /home/vance/anaconda3/envs/p4env/share/psi4/basis/aug-cc-pvqz-ri.gbs 

	 --------------------------------------------------------
	                          DF-MP2                         
	      2nd-Order Density-Fitted Moller-Plesset Theory     
	              RMP2 Wavefunction,   4 Threads             
	                                                         
	        Rob Parrish, Justin Turney, Andy Simmonett,      
	           Ed Hohenstein, and C. David Sherrill          
	 --------------------------------------------------------

   => Auxiliary Basis Set <=

  Basis Set: (THIS_BASIS AUX)
    Blend: AUG-CC-PVQZ-RI
    Number of shells: 168
    Number of basis functions: 750
    Number of Cartesian functions: 1044
    Spherical Harmonics?: true
    Max angular momentum: 6

	 --------------------------------------------------------
	                 NBF =   357, NAUX =   750
	 --------------------------------------------------------
	   CLASS    FOCC     OCC    AOCC    AVIR     VIR    FVIR
	   PAIRS       0       5       5     352     352       0
	 --------------------------------------------------------

	 Will attempt to load fitting metric from file 97.

	-----------------------------------------------------------
	 ==================> DF-MP2 Energies <==================== 
	-----------------------------------------------------------
	 Reference Energy          =     -56.2239501026049595 [Eh]
	 Singles Energy            =      -0.0000000000000000 [Eh]
	 Same-Spin Energy          =      -0.0594341908447852 [Eh]
	 Opposite-Spin Energy      =      -0.2250620845518767 [Eh]
	 Correlation Energy        =      -0.2844962753966620 [Eh]
	 Total Energy              =     -56.5084463780016222 [Eh]
	-----------------------------------------------------------
	 ================> DF-SCS-MP2 Energies <================== 
	-----------------------------------------------------------
	 SCS Same-Spin Scale       =       0.3333333333333333 [-]
	 SCS Opposite-Spin Scale   =       1.2000000000000000 [-]
	 SCS Same-Spin Energy      =      -0.0198113969482617 [Eh]
	 SCS Opposite-Spin Energy  =      -0.2700745014622521 [Eh]
	 SCS Correlation Energy    =      -0.2898858984105138 [Eh]
	 SCS Total Energy          =     -56.5138360010154699 [Eh]
	-----------------------------------------------------------


*** tstop() called on cmpsrv002 at Thu Sep 26 15:27:11 2024
Module time:
	user time   =       5.73 seconds =       0.10 minutes
	system time =       0.84 seconds =       0.01 minutes
	total time  =         20 seconds =       0.33 minutes
Total time:
	user time   =     109.86 seconds =       1.83 minutes
	system time =      16.04 seconds =       0.27 minutes
	total time  =         98 seconds =       1.63 minutes
  Constructing Basis Sets for SAPT...

   => Loading Basis Set <=

    Name: (THIS_BASIS AUX)
    Role: RIFIT
    Keyword: DF_BASIS_SAPT
    atoms 1, 4-6 entry H          line    30 file /home/vance/anaconda3/envs/p4env/share/psi4/basis/aug-cc-pvqz-ri.gbs 
    atoms 2      entry BR         line  1518 file /home/vance/anaconda3/envs/p4env/share/psi4/basis/aug-cc-pvqz-ri.gbs 
    atoms 3      entry N          line   258 file /home/vance/anaconda3/envs/p4env/share/psi4/basis/aug-cc-pvqz-ri.gbs 

   => Loading Basis Set <=

    Name: (THIS_BASIS AUX)
    Role: JKFIT
    Keyword: DF_BASIS_ELST
    atoms 1, 4-6 entry H          line    70 file /home/vance/anaconda3/envs/p4env/share/psi4/basis/aug-cc-pvqz-jkfit.gbs 
    atoms 2      entry BR         line  1612 file /home/vance/anaconda3/envs/p4env/share/psi4/basis/aug-cc-pvqz-jkfit.gbs 
    atoms 3      entry N          line   248 file /home/vance/anaconda3/envs/p4env/share/psi4/basis/aug-cc-pvqz-jkfit.gbs 


  //>>>>>>>>>>>>>>>>>>>>>>>>>>>>>>>>>>>//
  //             SAPT2+DMP2            //
  //<<<<<<<<<<<<<<<<<<<<<<<<<<<<<<<<<<<//


*** tstart() called on cmpsrv002
*** at Thu Sep 26 15:27:11 2024

        SAPT2+  
    Ed Hohenstein
     6 June 2009

      Orbital Information
  --------------------------
    NSO        =       357
    NMO        =       357
    NRI        =       750
    NOCC A     =        18
    NOCC B     =         5
    FOCC A     =         0
    FOCC B     =         0
    NVIR A     =       339
    NVIR B     =       352

    Estimated memory usage: 1706.9 MB

    Natural Orbital Cutoff:   1.000E-06
    Disp(T3) Truncation:            Yes
    CCD (vv|vv) Truncation:         Yes
    MBPT T2 Truncation:             Yes

    Monomer A: 227 virtual orbitals dropped
    Monomer B: 184 virtual orbitals dropped

    Elst10,r            =    -0.028729965480 [Eh]
    Exch10 (S^2)        =     0.036833935902 [Eh]
    Exch10              =     0.037987923167 [Eh]
    Ind20,r (A<-B)      =    -0.006447362150 [Eh]
    Ind20,r (B<-A)      =    -0.013675692748 [Eh]
    Ind20,r             =    -0.020123054899 [Eh]
    Exch-Ind20,r (A<-B) =     0.004139588322 [Eh]
    Exch-Ind20,r (B<-A) =     0.008064549874 [Eh]
    Exch-Ind20,r        =     0.012204138196 [Eh]
    Disp20              =    -0.011719000336 [Eh]
    Disp20 (NO)         =    -0.010135192896 [Eh]
    Exch-Disp20         =     0.002516729926 [Eh]
    Elst12,r            =     0.000471536204 [Eh]
    Exch11              =     0.002028362476 [Eh]
    Exch12              =    -0.000416889537 [Eh]
    Ind22               =    -0.000974718400 [Eh]
    Disp21              =     0.000891606284 [Eh]
    Disp22 (SDQ)        =     0.000615805377 [Eh]

    (i =   1 of   5)         42 seconds
    (i =   2 of   5)         64 seconds
    (i =   3 of   5)         91 seconds
    (i =   4 of   5)        119 seconds
    (i =   5 of   5)        147 seconds

    Disp220 (T)         =    -0.000764272517 [Eh]

    (i =   1 of  18)          8 seconds
    (i =   2 of  18)         16 seconds
    (i =   3 of  18)         24 seconds
    (i =   4 of  18)         32 seconds
    (i =   5 of  18)         41 seconds
