
    -----------------------------------------------------------------------
          Psi4: An Open-Source Ab Initio Electronic Structure Package
                               Psi4 1.9.1 release

                         Git: Rev {} zzzzzzz 


    D. G. A. Smith, L. A. Burns, A. C. Simmonett, R. M. Parrish,
    M. C. Schieber, R. Galvelis, P. Kraus, H. Kruse, R. Di Remigio,
    A. Alenaizan, A. M. James, S. Lehtola, J. P. Misiewicz, M. Scheurer,
    R. A. Shaw, J. B. Schriber, Y. Xie, Z. L. Glick, D. A. Sirianni,
    J. S. O'Brien, J. M. Waldrop, A. Kumar, E. G. Hohenstein,
    B. P. Pritchard, B. R. Brooks, H. F. Schaefer III, A. Yu. Sokolov,
    K. Patkowski, A. E. DePrince III, U. Bozkaya, R. A. King,
    F. A. Evangelista, J. M. Turney, T. D. Crawford, C. D. Sherrill,
    J. Chem. Phys. 152(18) 184108 (2020). https://doi.org/10.1063/5.0006002

                            Additional Code Authors
    E. T. Seidl, C. L. Janssen, E. F. Valeev, M. L. Leininger,
    J. F. Gonthier, R. M. Richard, H. R. McAlexander, M. Saitow, X. Wang,
    P. Verma, M. H. Lechner, A. Jiang, S. Behnle, A. G. Heide,
    M. F. Herbst, and D. L. Poole

             Previous Authors, Complete List of Code Contributors,
                       and Citations for Specific Modules
    https://github.com/psi4/psi4/blob/master/codemeta.json
    https://github.com/psi4/psi4/graphs/contributors
    http://psicode.org/psi4manual/master/introduction.html#citing-psifour

    -----------------------------------------------------------------------


    Psi4 started on: Thursday, 26 September 2024 03:25PM

    Process ID: 636598
    Host:       cmpsrv002
    PSIDATADIR: /home/vance/anaconda3/envs/p4env/share/psi4
    Memory:     500.0 MiB
    Threads:    8
    
  ==> Input File <==

--------------------------------------------------------------------------
#charge=0 charge_a=0 charge_b=0 selection_a=1-2 selection_b=3-6 scaling=1.5 benchmark_Eint=-5.459 benchmark_unit=kcal/mol group=XH-N
set_num_threads(4)
memory 8 GB
basis this_basis {
    assign    aug-cc-pVQZ
}

molecule {
     0 1
    --
     0 1
     H        0.00002       -0.93248        0.00000
    Br       -0.00001        0.58174        0.00000
    --
     0 1
     N        0.00003       -3.40165        0.00000
     H       -0.47435       -3.75412        0.82165
     H       -0.47435       -3.75412       -0.82165
     H        0.94879       -3.75412        0.00000
}

set {
    scf_type                DF
    freeze_core             false
    do_ind_exch_sinf        true
    do_disp_exch_sinf       true
}

nrg = energy('sapt2+dmp2')
--------------------------------------------------------------------------
  Threads set to 4 by Python driver.

  Memory set to   7.451 GiB by Python driver.

Scratch directory: /scratch2/vance/psi4/
  SAPT does not make use of molecular symmetry, further calculations in C1 point group.
   => Loading Basis Set <=

    Name: THIS_BASIS
    Role: ORBITAL
    Keyword: BASIS
    atoms 1, 4-6 entry H          line    40 file /home/vance/anaconda3/envs/p4env/share/psi4/basis/aug-cc-pvqz.gbs 
    atoms 2      entry BR         line  5448 file /home/vance/anaconda3/envs/p4env/share/psi4/basis/aug-cc-pvqz.gbs 
    atoms 3      entry N          line   363 file /home/vance/anaconda3/envs/p4env/share/psi4/basis/aug-cc-pvqz.gbs 

   => Loading Basis Set <=

    Name: THIS_BASIS
    Role: ORBITAL
    Keyword: BASIS
    atoms 1, 4-6 entry H          line    40 file /home/vance/anaconda3/envs/p4env/share/psi4/basis/aug-cc-pvqz.gbs 
    atoms 2      entry BR         line  5448 file /home/vance/anaconda3/envs/p4env/share/psi4/basis/aug-cc-pvqz.gbs 
    atoms 3      entry N          line   363 file /home/vance/anaconda3/envs/p4env/share/psi4/basis/aug-cc-pvqz.gbs 


  //>>>>>>>>>>>>>>>>>>>>>>>>>>>>>>>>>>>//
  //              Dimer HF             //
  //<<<<<<<<<<<<<<<<<<<<<<<<<<<<<<<<<<<//

   => Libint2 <=

    Primary   basis highest AM E, G, H:  6, 6, 3
    Auxiliary basis highest AM E, G, H:  7, 7, 4
    Onebody   basis highest AM E, G, H:  -, -, -
    Solid Harmonics ordering:            Gaussian

*** tstart() called on cmpsrv002
*** at Thu Sep 26 15:25:33 2024

   => Loading Basis Set <=

    Name: THIS_BASIS
    Role: ORBITAL
    Keyword: BASIS
    atoms 1, 4-6 entry H          line    40 file /home/vance/anaconda3/envs/p4env/share/psi4/basis/aug-cc-pvqz.gbs 
    atoms 2      entry BR         line  5448 file /home/vance/anaconda3/envs/p4env/share/psi4/basis/aug-cc-pvqz.gbs 
    atoms 3      entry N          line   363 file /home/vance/anaconda3/envs/p4env/share/psi4/basis/aug-cc-pvqz.gbs 


         ---------------------------------------------------------
                                   SCF
               by Justin Turney, Rob Parrish, Andy Simmonett
                          and Daniel G. A. Smith
                              RHF Reference
                        4 Threads,   7629 MiB Core
         ---------------------------------------------------------

  ==> Geometry <==

    Molecular point group: c1
    Full point group: C1

    Geometry (in Angstrom), charge = 0, multiplicity = 1:

       Center              X                  Y                   Z               Mass       
    ------------   -----------------  -----------------  -----------------  -----------------
         H            0.000022663468    -0.787936668130     0.000000000000     1.007825032230
         BR          -0.000007336532     0.726283331870     0.000000000000    78.918337600000
         N            0.000032663468    -3.257106668130     0.000000000000    14.003074004430
         H           -0.474347336532    -3.609576668130     0.821650000000     1.007825032230
         H           -0.474347336532    -3.609576668130    -0.821650000000     1.007825032230
         H            0.948792663468    -3.609576668130     0.000000000000     1.007825032230

  Running in c1 symmetry.

  Rotational constants: A =      6.19409  B =      0.07280  C =      0.07280 [cm^-1]
  Rotational constants: A = 185694.14443  B =   2182.46936  C =   2182.46935 [MHz]
  Nuclear repulsion =   71.276700276963282

  Charge       = 0
  Multiplicity = 1
  Electrons    = 46
  Nalpha       = 23
  Nbeta        = 23

  ==> Algorithm <==

  SCF Algorithm Type is DF.
  DIIS enabled.
  MOM disabled.
  Fractional occupation disabled.
  Guess Type is SAD.
  Energy threshold   = 1.00e-08
  Density threshold  = 1.00e-08
  Integral threshold = 1.00e-12

  ==> Primary Basis <==

  Basis Set: THIS_BASIS
    Blend: AUG-CC-PVQZ
    Number of shells: 101
    Number of basis functions: 357
    Number of Cartesian functions: 444
    Spherical Harmonics?: true
    Max angular momentum: 4

   => Loading Basis Set <=

    Name: (THIS_BASIS AUX)
    Role: JKFIT
    Keyword: DF_BASIS_SCF
    atoms 1, 4-6 entry H          line    70 file /home/vance/anaconda3/envs/p4env/share/psi4/basis/aug-cc-pvqz-jkfit.gbs 
    atoms 2      entry BR         line  1612 file /home/vance/anaconda3/envs/p4env/share/psi4/basis/aug-cc-pvqz-jkfit.gbs 
    atoms 3      entry N          line   248 file /home/vance/anaconda3/envs/p4env/share/psi4/basis/aug-cc-pvqz-jkfit.gbs 

  ==> Integral Setup <==

  ==> DiskDFJK: Density-Fitted J/K Matrices <==

    J tasked:                  Yes
    K tasked:                  Yes
    wK tasked:                  No
    OpenMP threads:              4
    Integrals threads:           4
    Memory [MiB]:             5722
    Algorithm:                Core
    Integral Cache:           SAVE
    Schwarz Cutoff:          1E-12
    Fitting Condition:       1E-10

   => Auxiliary Basis Set <=

  Basis Set: (THIS_BASIS AUX)
    Blend: AUG-CC-PVQZ-JKFIT
    Number of shells: 166
    Number of basis functions: 716
    Number of Cartesian functions: 973
    Spherical Harmonics?: true
    Max angular momentum: 5

  Minimum eigenvalue in the overlap matrix is 2.2474957053E-05.
  Reciprocal condition number of the overlap matrix is 2.0693721436E-06.
    Using symmetric orthogonalization.

  ==> Pre-Iterations <==

  SCF Guess: Superposition of Atomic Densities via on-the-fly atomic UHF (no occupation information).

   -------------------------
    Irrep   Nso     Nmo    
   -------------------------
     A        357     357 
   -------------------------
    Total     357     357
   -------------------------

  ==> Iterations <==

                           Total Energy        Delta E     RMS |[F,P]|

   @DF-RHF iter SAD: -2626.82034409127846   -2.62682e+03   0.00000e+00 
   @DF-RHF iter   1: -2628.95781957658801   -2.13748e+00   3.67784e-03 ADIIS/DIIS
   @DF-RHF iter   2: -2629.19184133200861   -2.34022e-01   2.05741e-03 ADIIS/DIIS
   @DF-RHF iter   3: -2629.27635142651752   -8.45101e-02   8.54970e-05 DIIS
   @DF-RHF iter   4: -2629.27735599568268   -1.00457e-03   2.65133e-05 DIIS
   @DF-RHF iter   5: -2629.27744288287386   -8.68872e-05   1.06410e-05 DIIS
   @DF-RHF iter   6: -2629.27745413616867   -1.12533e-05   2.71586e-06 DIIS
   @DF-RHF iter   7: -2629.27745554860303   -1.41243e-06   6.11964e-07 DIIS
   @DF-RHF iter   8: -2629.27745563010922   -8.15062e-08   9.53245e-08 DIIS
   @DF-RHF iter   9: -2629.27745563164353   -1.53432e-09   2.56197e-08 DIIS
   @DF-RHF iter  10: -2629.27745563172584   -8.23093e-11   5.63434e-09 DIIS
  Energy and wave function converged.


  ==> Post-Iterations <==

    Orbital Energies [Eh]
    ---------------------

    Doubly Occupied:                                                      

       1A   -490.015391     2A    -65.155356     3A    -58.510718  
       4A    -58.509471     5A    -58.509471     6A    -15.561089  
       7A     -9.827945     8A     -7.439034     9A     -7.433117  
      10A     -7.433117    11A     -3.182632    12A     -3.179277  
      13A     -3.179277    14A     -3.171668    15A     -3.171668  
      16A     -1.161044    17A     -0.998831    18A     -0.652857  
      19A     -0.652857    20A     -0.545548    21A     -0.445596  
      22A     -0.412892    23A     -0.412892  

    Virtual:                                                              

      24A      0.020964    25A      0.039987    26A      0.039987  
      27A      0.045675    28A      0.084823    29A      0.092219  
      30A      0.092219    31A      0.114895    32A      0.128837  
      33A      0.128837    34A      0.128923    35A      0.151562  
      36A      0.173006    37A      0.173006    38A      0.181434  
      39A      0.184145    40A      0.184145    41A      0.236280  
      42A      0.236280    43A      0.265904    44A      0.267967  
      45A      0.267968    46A      0.275150    47A      0.312315  
      48A      0.312976    49A      0.312976    50A      0.318648  
      51A      0.338110    52A      0.338110    53A      0.350472  
      54A      0.366843    55A      0.379850    56A      0.379850  
      57A      0.399141    58A      0.399142    59A      0.431439  
      60A      0.431439    61A      0.435768    62A      0.457116  
      63A      0.495444    64A      0.495446    65A      0.535478  
      66A      0.535480    67A      0.536626    68A      0.579142  
      69A      0.579142    70A      0.580113    71A      0.580113  
      72A      0.623368    73A      0.664193    74A      0.664194  
      75A      0.664706    76A      0.670352    77A      0.692702  
      78A      0.697725    79A      0.728515    80A      0.728665  
      81A      0.728666    82A      0.737995    83A      0.744467  
      84A      0.744467    85A      0.776398    86A      0.776619  
      87A      0.776619    88A      0.795099    89A      0.795099  
      90A      0.826461    91A      0.826462    92A      0.856923  
      93A      0.881681    94A      0.881681    95A      0.884747  
      96A      0.909900    97A      0.945413    98A      0.945415  
      99A      0.951374   100A      0.952356   101A      0.952358  
     102A      0.994133   103A      1.032879   104A      1.032879  
     105A      1.065793   106A      1.065795   107A      1.112317  
     108A      1.200092   109A      1.200093   110A      1.203692  
     111A      1.252674   112A      1.252675   113A      1.297842  
     114A      1.351730   115A      1.353751   116A      1.353751  
     117A      1.388960   118A      1.399081   119A      1.399082  
     120A      1.449278   121A      1.455234   122A      1.455234  
     123A      1.456499   124A      1.471782   125A      1.471782  
     126A      1.475724   127A      1.511928   128A      1.525736  
     129A      1.525737   130A      1.531064   131A      1.531064  
     132A      1.574108   133A      1.574108   134A      1.579662  
     135A      1.601837   136A      1.601838   137A      1.618353  
     138A      1.618735   139A      1.634002   140A      1.661480  
     141A      1.661481   142A      1.692858   143A      1.736616  
     144A      1.736617   145A      1.754809   146A      1.754810  
     147A      1.781079   148A      1.782933   149A      1.782935  
     150A      1.796662   151A      1.801131   152A      1.825776  
     153A      1.825777   154A      1.863113   155A      1.865930  
     156A      1.865930   157A      1.904807   158A      1.926156  
     159A      1.934200   160A      1.934201   161A      1.967274  
     162A      1.967274   163A      2.020305   164A      2.051743  
     165A      2.083823   166A      2.083823   167A      2.091515  
     168A      2.132253   169A      2.147450   170A      2.147451  
     171A      2.154833   172A      2.168599   173A      2.168599  
     174A      2.183582   175A      2.183583   176A      2.275902  
     177A      2.316711   178A      2.378909   179A      2.378911  
     180A      2.409198   181A      2.535975   182A      2.535977  
     183A      2.558467   184A      2.624939   185A      2.624940  
     186A      2.738610   187A      2.833305   188A      2.833305  
     189A      2.901800   190A      2.901803   191A      2.913797  
     192A      2.927247   193A      2.927247   194A      2.932299  
     195A      2.971301   196A      2.971302   197A      3.002250  
     198A      3.040432   199A      3.040433   200A      3.083224  
     201A      3.118653   202A      3.153360   203A      3.153361  
     204A      3.239090   205A      3.239090   206A      3.280670  
     207A      3.280671   208A      3.318827   209A      3.381093  
     210A      3.381094   211A      3.421110   212A      3.421386  
     213A      3.427977   214A      3.434167   215A      3.434168  
     216A      3.517528   217A      3.517529   218A      3.534030  
     219A      3.552932   220A      3.552933   221A      3.583610  
     222A      3.666763   223A      3.666763   224A      3.666996  
     225A      3.684805   226A      3.684805   227A      3.688065  
     228A      3.688601   229A      3.810405   230A      3.810405  
     231A      3.841453   232A      3.841453   233A      3.867606  
     234A      3.923476   235A      3.923478   236A      3.928517  
     237A      3.991632   238A      3.991633   239A      4.011509  
     240A      4.011512   241A      4.100612   242A      4.153558  
     243A      4.153559   244A      4.173566   245A      4.209558  
     246A      4.211083   247A      4.211083   248A      4.214556  
     249A      4.246331   250A      4.421275   251A      4.421275  
     252A      4.529860   253A      4.731399   254A      4.731404  
     255A      4.839636   256A      4.839639   257A      4.952349  
     258A      4.979808   259A      4.979808   260A      5.076612  
     261A      5.194155   262A      5.194156   263A      5.391657  
     264A      5.391658   265A      5.412818   266A      5.467027  
     267A      5.689064   268A      6.595125   269A      6.595440  
     270A      6.826987   271A      6.826987   272A      6.854937  
     273A      6.872264   274A      6.872265   275A      6.954876  
     276A      6.954876   277A      7.154358   278A      7.164148  
     279A      7.164149   280A      7.351337   281A      7.395653  
     282A      7.406698   283A      7.406698   284A      7.516175  
     285A      7.516177   286A      7.590811   287A      7.656338  
     288A      7.714313   289A      7.714314   290A      7.894357  
     291A      7.894357   292A      7.970821   293A      8.064003  
     294A      8.064005   295A      8.298898   296A      8.313845  
     297A      8.373642   298A      8.373643   299A      8.532625  
     300A      8.532627   301A      8.559336   302A      8.559337  
     303A      8.561730   304A      8.590951   305A      8.590952  
     306A      8.730089   307A      8.730206   308A      8.730208  
     309A      8.846734   310A      8.846734   311A      8.932525  
     312A      8.937570   313A      8.994932   314A      9.009126  
     315A      9.009126   316A      9.012048   317A      9.256790  
     318A      9.256790   319A      9.322921   320A      9.322922  
     321A      9.357806   322A      9.463539   323A      9.463540  
     324A      9.530862   325A      9.530863   326A      9.602318  
     327A      9.723013   328A      9.723156   329A      9.915643  
     330A      9.915643   331A      9.983679   332A     10.008227  
     333A     10.093916   334A     10.093917   335A     10.172670  
     336A     10.284109   337A     10.284109   338A     10.544930  
     339A     10.544930   340A     10.862556   341A     10.868061  
     342A     11.004108   343A     11.004109   344A     11.776836  
     345A     12.194384   346A     12.194385   347A     12.251465  
     348A     12.329179   349A     12.329180   350A     13.053679  
     351A     13.127786   352A     13.127786   353A     14.648312  
     354A     14.917387   355A     15.091385   356A     15.091387  
     357A     36.695822  

    Final Occupation by Irrep:
              A 
    DOCC [    23 ]
    NA   [    23 ]
    NB   [    23 ]

  @DF-RHF Final Energy: -2629.27745563172584

   => Energetics <=

    Nuclear Repulsion Energy =             71.2767002769632825
    One-Electron Energy =               -3801.9848185894534254
    Two-Electron Energy =                1101.4306626807644989
    Total Energy =                      -2629.2774556317253882

Computation Completed


Properties will be evaluated at   0.000000,   0.000000,   0.000000 [a0]

Properties computed using the SCF density matrix


 Multipole Moments:

 ------------------------------------------------------------------------------------
     Multipole            Electronic (a.u.)      Nuclear  (a.u.)        Total (a.u.)
 ------------------------------------------------------------------------------------

 L = 1.  Multiply by 2.5417464519 to convert [e a0] to [Debye]
 Dipole X            :         -0.0001634            0.0001748            0.0000114
 Dipole Y            :         15.6709575          -17.0009149           -1.3299574
 Dipole Z            :          0.0000000            0.0000000            0.0000000
 Magnitude           :                                                    1.3299574

 ------------------------------------------------------------------------------------

*** tstop() called on cmpsrv002 at Thu Sep 26 15:26:08 2024
Module time:
	user time   =      44.43 seconds =       0.74 minutes
	system time =       6.13 seconds =       0.10 minutes
	total time  =         35 seconds =       0.58 minutes
Total time:
	user time   =      44.43 seconds =       0.74 minutes
	system time =       6.13 seconds =       0.10 minutes
	total time  =         35 seconds =       0.58 minutes

*** tstart() called on cmpsrv002
*** at Thu Sep 26 15:26:08 2024


  //>>>>>>>>>>>>>>>>>>>>>>>>>>>>>>>>>>>//
  //               DFMP2               //
  //<<<<<<<<<<<<<<<<<<<<<<<<<<<<<<<<<<<//

   => Loading Basis Set <=

    Name: (THIS_BASIS AUX)
    Role: RIFIT
    Keyword: DF_BASIS_MP2
    atoms 1, 4-6 entry H          line    30 file /home/vance/anaconda3/envs/p4env/share/psi4/basis/aug-cc-pvqz-ri.gbs 
    atoms 2      entry BR         line  1518 file /home/vance/anaconda3/envs/p4env/share/psi4/basis/aug-cc-pvqz-ri.gbs 
    atoms 3      entry N          line   258 file /home/vance/anaconda3/envs/p4env/share/psi4/basis/aug-cc-pvqz-ri.gbs 

	 --------------------------------------------------------
	                          DF-MP2                         
	      2nd-Order Density-Fitted Moller-Plesset Theory     
	              RMP2 Wavefunction,   4 Threads             
	                                                         
	        Rob Parrish, Justin Turney, Andy Simmonett,      
	           Ed Hohenstein, and C. David Sherrill          
	 --------------------------------------------------------

   => Auxiliary Basis Set <=

  Basis Set: (THIS_BASIS AUX)
    Blend: AUG-CC-PVQZ-RI
    Number of shells: 168
    Number of basis functions: 750
    Number of Cartesian functions: 1044
    Spherical Harmonics?: true
    Max angular momentum: 6

	 --------------------------------------------------------
	                 NBF =   357, NAUX =   750
	 --------------------------------------------------------
	   CLASS    FOCC     OCC    AOCC    AVIR     VIR    FVIR
	   PAIRS       0      23      23     334     334       0
	 --------------------------------------------------------

	 Will save fitting metric to file 97.

	-----------------------------------------------------------
	 ==================> DF-MP2 Energies <==================== 
	-----------------------------------------------------------
	 Reference Energy          =   -2629.2774556317258430 [Eh]
	 Singles Energy            =      -0.0000000000000000 [Eh]
	 Same-Spin Energy          =      -0.1782834970367827 [Eh]
	 Opposite-Spin Energy      =      -0.5098499215214910 [Eh]
	 Correlation Energy        =      -0.6881334185582737 [Eh]
	 Total Energy              =   -2629.9655890502840521 [Eh]
	-----------------------------------------------------------
	 ================> DF-SCS-MP2 Energies <================== 
	-----------------------------------------------------------
	 SCS Same-Spin Scale       =       0.3333333333333333 [-]
	 SCS Opposite-Spin Scale   =       1.2000000000000000 [-]
	 SCS Same-Spin Energy      =      -0.0594278323455942 [Eh]
	 SCS Opposite-Spin Energy  =      -0.6118199058257892 [Eh]
	 SCS Correlation Energy    =      -0.6712477381713834 [Eh]
	 SCS Total Energy          =   -2629.9487033698974301 [Eh]
	-----------------------------------------------------------


*** tstop() called on cmpsrv002 at Thu Sep 26 15:26:19 2024
Module time:
	user time   =      13.29 seconds =       0.22 minutes
	system time =       2.32 seconds =       0.04 minutes
	total time  =         11 seconds =       0.18 minutes
Total time:
	user time   =      57.72 seconds =       0.96 minutes
	system time =       8.45 seconds =       0.14 minutes
	total time  =         46 seconds =       0.77 minutes

  //>>>>>>>>>>>>>>>>>>>>>>>>>>>>>>>>>>>//
  //            Monomer A HF           //
  //<<<<<<<<<<<<<<<<<<<<<<<<<<<<<<<<<<<//

   => Libint2 <=

    Primary   basis highest AM E, G, H:  6, 6, 3
    Auxiliary basis highest AM E, G, H:  7, 7, 4
    Onebody   basis highest AM E, G, H:  -, -, -
    Solid Harmonics ordering:            Gaussian

*** tstart() called on cmpsrv002
*** at Thu Sep 26 15:26:19 2024

   => Loading Basis Set <=

    Name: THIS_BASIS
    Role: ORBITAL
    Keyword: BASIS
    atoms 1, 4-6 entry H          line    40 file /home/vance/anaconda3/envs/p4env/share/psi4/basis/aug-cc-pvqz.gbs 
    atoms 2      entry BR         line  5448 file /home/vance/anaconda3/envs/p4env/share/psi4/basis/aug-cc-pvqz.gbs 
    atoms 3      entry N          line   363 file /home/vance/anaconda3/envs/p4env/share/psi4/basis/aug-cc-pvqz.gbs 


         ---------------------------------------------------------
                                   SCF
               by Justin Turney, Rob Parrish, Andy Simmonett
                          and Daniel G. A. Smith
                              RHF Reference
                        4 Threads,   7629 MiB Core
         ---------------------------------------------------------

  ==> Geometry <==

    Molecular point group: c1
    Full point group: C1

    Geometry (in Angstrom), charge = 0, multiplicity = 1:

       Center              X                  Y                   Z               Mass       
    ------------   -----------------  -----------------  -----------------  -----------------
         H            0.000022663468    -0.787936668130     0.000000000000     1.007825032230
         BR          -0.000007336532     0.726283331870     0.000000000000    78.918337600000
      Gh(N)           0.000032663468    -3.257106668130     0.000000000000    14.003074004430
      Gh(H)          -0.474347336532    -3.609576668130     0.821650000000     1.007825032230
      Gh(H)          -0.474347336532    -3.609576668130    -0.821650000000     1.007825032230
      Gh(H)           0.948792663468    -3.609576668130     0.000000000000     1.007825032230

  Running in c1 symmetry.

  Rotational constants: A =      6.19409  B =      0.07280  C =      0.07280 [cm^-1]
  Rotational constants: A = 185694.14443  B =   2182.46936  C =   2182.46935 [MHz]
  Nuclear repulsion =   12.231513498576831

  Charge       = 0
  Multiplicity = 1
  Electrons    = 36
  Nalpha       = 18
  Nbeta        = 18

  ==> Algorithm <==

  SCF Algorithm Type is DF.
  DIIS enabled.
  MOM disabled.
  Fractional occupation disabled.
  Guess Type is SAD.
  Energy threshold   = 1.00e-08
  Density threshold  = 1.00e-08
  Integral threshold = 1.00e-12

  ==> Primary Basis <==

  Basis Set: THIS_BASIS
    Blend: AUG-CC-PVQZ
    Number of shells: 101
    Number of basis functions: 357
    Number of Cartesian functions: 444
    Spherical Harmonics?: true
    Max angular momentum: 4

   => Loading Basis Set <=

    Name: (THIS_BASIS AUX)
    Role: JKFIT
    Keyword: DF_BASIS_SCF
    atoms 1, 4-6 entry H          line    70 file /home/vance/anaconda3/envs/p4env/share/psi4/basis/aug-cc-pvqz-jkfit.gbs 
    atoms 2      entry BR         line  1612 file /home/vance/anaconda3/envs/p4env/share/psi4/basis/aug-cc-pvqz-jkfit.gbs 
    atoms 3      entry N          line   248 file /home/vance/anaconda3/envs/p4env/share/psi4/basis/aug-cc-pvqz-jkfit.gbs 

  ==> Integral Setup <==

  ==> DiskDFJK: Density-Fitted J/K Matrices <==

    J tasked:                  Yes
    K tasked:                  Yes
    wK tasked:                  No
    OpenMP threads:              4
    Integrals threads:           4
    Memory [MiB]:             5722
    Algorithm:                Core
    Integral Cache:           LOAD
    Schwarz Cutoff:          1E-12
    Fitting Condition:       1E-10

   => Auxiliary Basis Set <=

  Basis Set: (THIS_BASIS AUX)
    Blend: AUG-CC-PVQZ-JKFIT
    Number of shells: 166
    Number of basis functions: 716
    Number of Cartesian functions: 973
    Spherical Harmonics?: true
    Max angular momentum: 5

  Minimum eigenvalue in the overlap matrix is 2.2474957053E-05.
  Reciprocal condition number of the overlap matrix is 2.0693721436E-06.
    Using symmetric orthogonalization.

  ==> Pre-Iterations <==

  SCF Guess: Superposition of Atomic Densities via on-the-fly atomic UHF (no occupation information).

   -------------------------
    Irrep   Nso     Nmo    
   -------------------------
     A        357     357 
   -------------------------
    Total     357     357
   -------------------------

  ==> Iterations <==

                           Total Energy        Delta E     RMS |[F,P]|

   @DF-RHF iter SAD: -2571.14384223807565   -2.57114e+03   0.00000e+00 
   @DF-RHF iter   1: -2572.80872878973469   -1.66489e+00   3.46448e-03 ADIIS/DIIS
   @DF-RHF iter   2: -2572.98118797640745   -1.72459e-01   1.95475e-03 ADIIS/DIIS
   @DF-RHF iter   3: -2573.04615468405700   -6.49667e-02   5.44873e-05 DIIS
   @DF-RHF iter   4: -2573.04662081790275   -4.66134e-04   1.87446e-05 DIIS
   @DF-RHF iter   5: -2573.04669407565689   -7.32578e-05   4.73293e-06 DIIS
   @DF-RHF iter   6: -2573.04669830708008   -4.23142e-06   8.47722e-07 DIIS
   @DF-RHF iter   7: -2573.04669839314329   -8.60632e-08   2.06143e-07 DIIS
   @DF-RHF iter   8: -2573.04669840021916   -7.07587e-09   2.84353e-08 DIIS
   @DF-RHF iter   9: -2573.04669840035604   -1.36879e-10   4.40805e-09 DIIS
  Energy and wave function converged.


  ==> Post-Iterations <==

    Orbital Energies [Eh]
    ---------------------

    Doubly Occupied:                                                      

       1A   -490.039750     2A    -65.179495     3A    -58.534976  
       4A    -58.533521     5A    -58.533521     6A     -9.851934  
       7A     -7.463424     8A     -7.456728     9A     -7.456728  
      10A     -3.207254    11A     -3.203532    12A     -3.203532  
      13A     -3.194912    14A     -3.194912    15A     -1.020565  
      16A     -0.564754    17A     -0.433628    18A     -0.433628  

    Virtual:                                                              

      19A      0.018243    20A      0.040510    21A      0.041883  
      22A      0.041883    23A      0.078363    24A      0.079341  
      25A      0.086957    26A      0.086957    27A      0.117667  
      28A      0.120434    29A      0.120435    30A      0.142792  
      31A      0.170633    32A      0.183366    33A      0.183366  
      34A      0.195003    35A      0.195003    36A      0.226924  
      37A      0.226924    38A      0.253006    39A      0.266908  
      40A      0.266909    41A      0.273946    42A      0.284867  
      43A      0.288395    44A      0.291503    45A      0.291503  
      46A      0.328211    47A      0.332712    48A      0.332713  
      49A      0.359091    50A      0.387308    51A      0.387308  
      52A      0.400994    53A      0.400995    54A      0.420073  
      55A      0.441593    56A      0.441595    57A      0.480282  
      58A      0.494517    59A      0.541441    60A      0.541443  
      61A      0.563408    62A      0.563409    63A      0.565548  
      64A      0.565548    65A      0.568043    66A      0.607727  
      67A      0.607730    68A      0.612376    69A      0.647849  
      70A      0.647849    71A      0.653762    72A      0.654077  
      73A      0.669542    74A      0.669543    75A      0.697748  
      76A      0.730562    77A      0.731695    78A      0.741486  
      79A      0.741486    80A      0.751801    81A      0.797155  
      82A      0.797156    83A      0.828803    84A      0.828803  
      85A      0.835612    86A      0.836981    87A      0.836981  
      88A      0.870486    89A      0.912790    90A      0.931959  
      91A      0.931959    92A      0.938893    93A      0.961678  
      94A      0.961679    95A      1.003814    96A      1.003815  
      97A      1.007116    98A      1.064558    99A      1.064558  
     100A      1.115605   101A      1.161059   102A      1.161060  
     103A      1.161509   104A      1.196533   105A      1.198301  
     106A      1.198301   107A      1.281558   108A      1.281558  
     109A      1.300902   110A      1.316760   111A      1.316760  
     112A      1.322279   113A      1.344221   114A      1.344221  
     115A      1.403952   116A      1.441256   117A      1.441256  
     118A      1.448161   119A      1.456323   120A      1.456324  
     121A      1.457377   122A      1.476967   123A      1.514281  
     124A      1.514281   125A      1.552100   126A      1.576324  
     127A      1.576325   128A      1.599514   129A      1.599516  
     130A      1.599518   131A      1.601009   132A      1.632726  
     133A      1.632726   134A      1.660145   135A      1.715170  
     136A      1.715171   137A      1.718375   138A      1.756162  
     139A      1.756163   140A      1.761942   141A      1.795851  
     142A      1.800009   143A      1.818795   144A      1.818795  
     145A      1.829895   146A      1.829895   147A      1.845149  
     148A      1.889236   149A      1.889237   150A      1.905841  
     151A      1.920010   152A      1.920011   153A      1.926998  
     154A      1.952117   155A      1.952117   156A      1.999177  
     157A      2.026428   158A      2.026429   159A      2.070922  
     160A      2.100827   161A      2.115724   162A      2.132090  
     163A      2.132091   164A      2.180900   165A      2.180901  
     166A      2.193227   167A      2.207557   168A      2.207558  
     169A      2.221810   170A      2.287160   171A      2.324825  
     172A      2.324826   173A      2.350192   174A      2.362739  
     175A      2.362741   176A      2.403884   177A      2.511803  
     178A      2.511804   179A      2.570710   180A      2.595258  
     181A      2.595259   182A      2.725269   183A      2.783810  
     184A      2.783813   185A      2.889325   186A      2.944318  
     187A      2.944318   188A      2.966926   189A      2.966926  
     190A      3.105520   191A      3.153015   192A      3.153016  
     193A      3.200488   194A      3.269948   195A      3.269949  
     196A      3.290489   197A      3.294928   198A      3.294929  
     199A      3.302114   200A      3.323171   201A      3.400983  
     202A      3.401023   203A      3.407928   204A      3.407928  
     205A      3.417497   206A      3.417498   207A      3.452139  
     208A      3.452139   209A      3.459470   210A      3.495654  
     211A      3.495654   212A      3.601904   213A      3.612868  
     214A      3.612869   215A      3.665096   216A      3.665096  
     217A      3.667096   218A      3.667689   219A      3.721930  
     220A      3.738478   221A      3.738478   222A      3.790400  
     223A      3.790400   224A      3.804768   225A      3.856120  
     226A      3.856120   227A      3.902980   228A      3.902981  
     229A      3.918678   230A      3.918681   231A      3.925803  
     232A      4.008357   233A      4.008361   234A      4.033366  
     235A      4.033368   236A      4.048245   237A      4.158696  
     238A      4.186894   239A      4.186895   240A      4.226199  
     241A      4.382423   242A      4.417350   243A      4.417350  
     244A      4.419863   245A      4.450299   246A      4.469569  
     247A      4.469569   248A      4.756504   249A      4.756505  
     250A      4.804993   251A      4.804995   252A      4.849996  
     253A      4.989521   254A      5.153901   255A      5.432417  
     256A      5.466453   257A      5.466454   258A      5.795161  
     259A      5.795161   260A      5.830080   261A      5.872281  
     262A      5.960170   263A      5.960170   264A      6.398738  
     265A      6.513045   266A      6.513046   267A      6.570466  
     268A      6.571464   269A      6.857144   270A      6.857145  
     271A      7.071394   272A      7.071396   273A      7.112455  
     274A      7.175130   275A      7.175131   276A      7.259078  
     277A      7.259079   278A      7.300100   279A      7.482858  
     280A      7.780979   281A      7.970919   282A      7.970921  
     283A      8.161541   284A      8.161542   285A      8.172395  
     286A      8.225389   287A      8.288281   288A      8.288282  
     289A      8.325234   290A      8.474068   291A      8.474068  
     292A      8.498917   293A      8.498919   294A      8.510924  
     295A      8.537761   296A      8.537762   297A      8.659035  
     298A      8.659037   299A      8.886824   300A      9.030760  
     301A      9.030761   302A      9.149579   303A      9.149581  
     304A      9.180175   305A      9.251997   306A      9.251998  
     307A      9.263265   308A      9.359941   309A      9.359941  
     310A      9.496614   311A      9.537450   312A      9.583147  
     313A      9.583147   314A      9.584632   315A      9.733288  
     316A      9.822252   317A      9.937602   318A      9.995246  
     319A      9.995247   320A     10.159556   321A     10.159556  
     322A     10.455758   323A     10.455759   324A     10.470911  
     325A     10.575462   326A     10.660681   327A     10.660682  
     328A     10.779587   329A     10.794123   330A     10.794123  
     331A     11.038856   332A     11.351188   333A     11.351189  
     334A     11.899030   335A     11.899030   336A     12.033602  
     337A     12.150605   338A     12.541872   339A     12.541873  
     340A     13.172369   341A     13.172369   342A     13.352042  
     343A     14.032325   344A     14.133011   345A     14.485293  
     346A     14.485294   347A     14.672260   348A     14.695002  
     349A     14.695002   350A     16.066375   351A     16.066375  
     352A     16.219011   353A     18.296242   354A     19.552530  
     355A     21.853478   356A     21.853481   357A     96.283936  

    Final Occupation by Irrep:
              A 
    DOCC [    18 ]
    NA   [    18 ]
    NB   [    18 ]

  @DF-RHF Final Energy: -2573.04669840035604

   => Energetics <=

    Nuclear Repulsion Energy =             12.2315134985768310
    One-Electron Energy =               -3607.5428377962898594
    Two-Electron Energy =                1022.2646258973567228
    Total Energy =                      -2573.0466984003560356

Computation Completed


Properties will be evaluated at   0.000000,   0.000000,   0.000000 [a0]

Properties computed using the SCF density matrix


 Multipole Moments:

 ------------------------------------------------------------------------------------
     Multipole            Electronic (a.u.)      Nuclear  (a.u.)        Total (a.u.)
 ------------------------------------------------------------------------------------

 L = 1.  Multiply by 2.5417464519 to convert [e a0] to [Debye]
 Dipole X            :          0.0004503           -0.0004424            0.0000079
 Dipole Y            :        -46.9458690           46.5476960           -0.3981730
 Dipole Z            :          0.0000000            0.0000000            0.0000000
 Magnitude           :                                                    0.3981730

 ------------------------------------------------------------------------------------

*** tstop() called on cmpsrv002 at Thu Sep 26 15:26:44 2024
Module time:
	user time   =      31.99 seconds =       0.53 minutes
	system time =       3.58 seconds =       0.06 minutes
	total time  =         25 seconds =       0.42 minutes
Total time:
	user time   =      89.71 seconds =       1.50 minutes
	system time =      12.03 seconds =       0.20 minutes
	total time  =         71 seconds =       1.18 minutes

*** tstart() called on cmpsrv002
*** at Thu Sep 26 15:26:44 2024


  //>>>>>>>>>>>>>>>>>>>>>>>>>>>>>>>>>>>//
  //               DFMP2               //
  //<<<<<<<<<<<<<<<<<<<<<<<<<<<<<<<<<<<//

   => Loading Basis Set <=

    Name: (THIS_BASIS AUX)
    Role: RIFIT
    Keyword: DF_BASIS_MP2
    atoms 1, 4-6 entry H          line    30 file /home/vance/anaconda3/envs/p4env/share/psi4/basis/aug-cc-pvqz-ri.gbs 
    atoms 2      entry BR         line  1518 file /home/vance/anaconda3/envs/p4env/share/psi4/basis/aug-cc-pvqz-ri.gbs 
    atoms 3      entry N          line   258 file /home/vance/anaconda3/envs/p4env/share/psi4/basis/aug-cc-pvqz-ri.gbs 

	 --------------------------------------------------------
	                          DF-MP2                         
	      2nd-Order Density-Fitted Moller-Plesset Theory     
	              RMP2 Wavefunction,   4 Threads             
	                                                         
	        Rob Parrish, Justin Turney, Andy Simmonett,      
	           Ed Hohenstein, and C. David Sherrill          
	 --------------------------------------------------------

   => Auxiliary Basis Set <=

  Basis Set: (THIS_BASIS AUX)
    Blend: AUG-CC-PVQZ-RI
    Number of shells: 168
    Number of basis functions: 750
    Number of Cartesian functions: 1044
    Spherical Harmonics?: true
    Max angular momentum: 6

	 --------------------------------------------------------
	                 NBF =   357, NAUX =   750
	 --------------------------------------------------------
	   CLASS    FOCC     OCC    AOCC    AVIR     VIR    FVIR
	   PAIRS       0      18      18     339     339       0
	 --------------------------------------------------------

	 Will attempt to load fitting metric from file 97.

	-----------------------------------------------------------
	 ==================> DF-MP2 Energies <==================== 
	-----------------------------------------------------------
	 Reference Energy          =   -2573.0466984003560356 [Eh]
	 Singles Energy            =      -0.0000000000000000 [Eh]
	 Same-Spin Energy          =      -0.1173484651137152 [Eh]
	 Opposite-Spin Energy      =      -0.2841644723387335 [Eh]
	 Correlation Energy        =      -0.4015129374524486 [Eh]
	 Total Energy              =   -2573.4482113378085160 [Eh]
	-----------------------------------------------------------
	 ================> DF-SCS-MP2 Energies <================== 
	-----------------------------------------------------------
	 SCS Same-Spin Scale       =       0.3333333333333333 [-]
	 SCS Opposite-Spin Scale   =       1.2000000000000000 [-]
	 SCS Same-Spin Energy      =      -0.0391161550379051 [Eh]
	 SCS Opposite-Spin Energy  =      -0.3409973668064802 [Eh]
	 SCS Correlation Energy    =      -0.3801135218443852 [Eh]
	 SCS Total Energy          =   -2573.4268119222006135 [Eh]
	-----------------------------------------------------------


*** tstop() called on cmpsrv002 at Thu Sep 26 15:27:18 2024
Module time:
	user time   =      10.91 seconds =       0.18 minutes
	system time =       1.32 seconds =       0.02 minutes
	total time  =         34 seconds =       0.57 minutes
Total time:
	user time   =     100.63 seconds =       1.68 minutes
	system time =      13.35 seconds =       0.22 minutes
	total time  =        105 seconds =       1.75 minutes

  //>>>>>>>>>>>>>>>>>>>>>>>>>>>>>>>>>>>//
  //            Monomer B HF           //
  //<<<<<<<<<<<<<<<<<<<<<<<<<<<<<<<<<<<//

   => Libint2 <=

    Primary   basis highest AM E, G, H:  6, 6, 3
    Auxiliary basis highest AM E, G, H:  7, 7, 4
    Onebody   basis highest AM E, G, H:  -, -, -
    Solid Harmonics ordering:            Gaussian

*** tstart() called on cmpsrv002
*** at Thu Sep 26 15:27:18 2024

   => Loading Basis Set <=

    Name: THIS_BASIS
    Role: ORBITAL
    Keyword: BASIS
    atoms 1, 4-6 entry H          line    40 file /home/vance/anaconda3/envs/p4env/share/psi4/basis/aug-cc-pvqz.gbs 
    atoms 2      entry BR         line  5448 file /home/vance/anaconda3/envs/p4env/share/psi4/basis/aug-cc-pvqz.gbs 
    atoms 3      entry N          line   363 file /home/vance/anaconda3/envs/p4env/share/psi4/basis/aug-cc-pvqz.gbs 


         ---------------------------------------------------------
                                   SCF
               by Justin Turney, Rob Parrish, Andy Simmonett
                          and Daniel G. A. Smith
                              RHF Reference
                        4 Threads,   7629 MiB Core
         ---------------------------------------------------------

  ==> Geometry <==

    Molecular point group: c1
    Full point group: C1

    Geometry (in Angstrom), charge = 0, multiplicity = 1:

       Center              X                  Y                   Z               Mass       
    ------------   -----------------  -----------------  -----------------  -----------------
      Gh(H)           0.000022663468    -0.787936668130     0.000000000000     1.007825032230
      Gh(BR)         -0.000007336532     0.726283331870     0.000000000000    78.918337600000
         N            0.000032663468    -3.257106668130     0.000000000000    14.003074004430
         H           -0.474347336532    -3.609576668130     0.821650000000     1.007825032230
         H           -0.474347336532    -3.609576668130    -0.821650000000     1.007825032230
         H            0.948792663468    -3.609576668130     0.000000000000     1.007825032230

  Running in c1 symmetry.

  Rotational constants: A =      6.19409  B =      0.07280  C =      0.07280 [cm^-1]
  Rotational constants: A = 185694.14443  B =   2182.46936  C =   2182.46935 [MHz]
  Nuclear repulsion =   11.945746185352998

  Charge       = 0
  Multiplicity = 1
  Electrons    = 10
  Nalpha       = 5
  Nbeta        = 5

  ==> Algorithm <==

  SCF Algorithm Type is DF.
  DIIS enabled.
  MOM disabled.
  Fractional occupation disabled.
  Guess Type is SAD.
  Energy threshold   = 1.00e-08
  Density threshold  = 1.00e-08
  Integral threshold = 1.00e-12

  ==> Primary Basis <==

  Basis Set: THIS_BASIS
    Blend: AUG-CC-PVQZ
    Number of shells: 101
    Number of basis functions: 357
    Number of Cartesian functions: 444
    Spherical Harmonics?: true
    Max angular momentum: 4

   => Loading Basis Set <=

    Name: (THIS_BASIS AUX)
    Role: JKFIT
    Keyword: DF_BASIS_SCF
    atoms 1, 4-6 entry H          line    70 file /home/vance/anaconda3/envs/p4env/share/psi4/basis/aug-cc-pvqz-jkfit.gbs 
    atoms 2      entry BR         line  1612 file /home/vance/anaconda3/envs/p4env/share/psi4/basis/aug-cc-pvqz-jkfit.gbs 
    atoms 3      entry N          line   248 file /home/vance/anaconda3/envs/p4env/share/psi4/basis/aug-cc-pvqz-jkfit.gbs 

  ==> Integral Setup <==

  ==> DiskDFJK: Density-Fitted J/K Matrices <==

    J tasked:                  Yes
    K tasked:                  Yes
    wK tasked:                  No
    OpenMP threads:              4
    Integrals threads:           4
    Memory [MiB]:             5722
    Algorithm:                Core
    Integral Cache:           LOAD
    Schwarz Cutoff:          1E-12
    Fitting Condition:       1E-10

   => Auxiliary Basis Set <=

  Basis Set: (THIS_BASIS AUX)
    Blend: AUG-CC-PVQZ-JKFIT
    Number of shells: 166
    Number of basis functions: 716
    Number of Cartesian functions: 973
    Spherical Harmonics?: true
    Max angular momentum: 5

  Minimum eigenvalue in the overlap matrix is 2.2474957053E-05.
  Reciprocal condition number of the overlap matrix is 2.0693721436E-06.
    Using symmetric orthogonalization.

  ==> Pre-Iterations <==

  SCF Guess: Superposition of Atomic Densities via on-the-fly atomic UHF (no occupation information).

   -------------------------
    Irrep   Nso     Nmo    
   -------------------------
     A        357     357 
   -------------------------
    Total     357     357
   -------------------------

  ==> Iterations <==

                           Total Energy        Delta E     RMS |[F,P]|

   @DF-RHF iter SAD:   -55.64105067983425   -5.56411e+01   0.00000e+00 
   @DF-RHF iter   1:   -56.12630671617414   -4.85256e-01   1.30904e-03 ADIIS/DIIS
   @DF-RHF iter   2:   -56.19505884012766   -6.87521e-02   7.58655e-04 ADIIS/DIIS
   @DF-RHF iter   3:   -56.22328088575826   -2.82220e-02   6.88871e-05 DIIS
   @DF-RHF iter   4:   -56.22391642226782   -6.35537e-04   1.28500e-05 DIIS
   @DF-RHF iter   5:   -56.22393753588434   -2.11136e-05   2.38096e-06 DIIS
   @DF-RHF iter   6:   -56.22393877029073   -1.23441e-06   6.31346e-07 DIIS
   @DF-RHF iter   7:   -56.22393885731999   -8.70293e-08   1.39760e-07 DIIS
   @DF-RHF iter   8:   -56.22393886182935   -4.50936e-09   2.09136e-08 DIIS
   @DF-RHF iter   9:   -56.22393886193029   -1.00933e-10   5.65217e-09 DIIS
  Energy and wave function converged.


  ==> Post-Iterations <==

    Orbital Energies [Eh]
    ---------------------

    Doubly Occupied:                                                      

       1A    -15.538873     2A     -1.139040     3A     -0.631525  
       4A     -0.631525     5A     -0.424224  

    Virtual:                                                              

       6A      0.025265     7A      0.038159     8A      0.043048  
       9A      0.043048    10A      0.078273    11A      0.078273  
      12A      0.080925    13A      0.111134    14A      0.131867  
      15A      0.136634    16A      0.136634    17A      0.139272  
      18A      0.182439    19A      0.182439    20A      0.198822  
      21A      0.198822    22A      0.233094    23A      0.256999  
      24A      0.256999    25A      0.258079    26A      0.258694  
      27A      0.258694    28A      0.282153    29A      0.283035  
      30A      0.291223    31A      0.291224    32A      0.332032  
      33A      0.333597    34A      0.333597    35A      0.347035  
      36A      0.359083    37A      0.377320    38A      0.377322  
      39A      0.397166    40A      0.397166    41A      0.457492  
      42A      0.457492    43A      0.459889    44A      0.475293  
      45A      0.510646    46A      0.510648    47A      0.535159  
      48A      0.554993    49A      0.554995    50A      0.598796  
      51A      0.658537    52A      0.686954    53A      0.696050  
      54A      0.696051    55A      0.699613    56A      0.701296  
      57A      0.701296    58A      0.708951    59A      0.727777  
      60A      0.727778    61A      0.728821    62A      0.750450  
      63A      0.752950    64A      0.752950    65A      0.761556  
      66A      0.775103    67A      0.775104    68A      0.786597  
      69A      0.786598    70A      0.792063    71A      0.793324  
      72A      0.793324    73A      0.845048    74A      0.845049  
      75A      0.848394    76A      0.856480    77A      0.856481  
      78A      0.922612    79A      0.922612    80A      0.931112  
      81A      0.962736    82A      0.962737    83A      0.969354  
      84A      0.986817    85A      0.986818    86A      1.030393  
      87A      1.057560    88A      1.057561    89A      1.076408  
      90A      1.148638    91A      1.156416    92A      1.156418  
      93A      1.277601    94A      1.277604    95A      1.292983  
      96A      1.334093    97A      1.370127    98A      1.423186  
      99A      1.423186   100A      1.437615   101A      1.461508  
     102A      1.477190   103A      1.477191   104A      1.496850  
     105A      1.520417   106A      1.520419   107A      1.544880  
     108A      1.560003   109A      1.566574   110A      1.566575  
     111A      1.591974   112A      1.591974   113A      1.597449  
     114A      1.603127   115A      1.678486   116A      1.678488  
     117A      1.735947   118A      1.735947   119A      1.738834  
     120A      1.760381   121A      1.760382   122A      1.777198  
     123A      1.777199   124A      1.811309   125A      1.813297  
     126A      1.813298   127A      1.834072   128A      1.868627  
     129A      1.868628   130A      1.883459   131A      1.893290  
     132A      1.900690   133A      1.900692   134A      1.904038  
     135A      1.932291   136A      1.932292   137A      1.950944  
     138A      1.956219   139A      1.970523   140A      1.970524  
     141A      2.017247   142A      2.017247   143A      2.023054  
     144A      2.023055   145A      2.036392   146A      2.071151  
     147A      2.080682   148A      2.112830   149A      2.112831  
     150A      2.130995   151A      2.140143   152A      2.140144  
     153A      2.199726   154A      2.205423   155A      2.205424  
     156A      2.221097   157A      2.221100   158A      2.225905  
     159A      2.305698   160A      2.305698   161A      2.322276  
     162A      2.338920   163A      2.445528   164A      2.445531  
     165A      2.486110   166A      2.513744   167A      2.610019  
     168A      2.610022   169A      2.728349   170A      2.728350  
     171A      2.800410   172A      2.895607   173A      2.918858  
     174A      2.918859   175A      2.932568   176A      2.961112  
     177A      2.961112   178A      3.003736   179A      3.024412  
     180A      3.024414   181A      3.068136   182A      3.068137  
     183A      3.106139   184A      3.134264   185A      3.138473  
     186A      3.174324   187A      3.174325   188A      3.279184  
     189A      3.279184   190A      3.308983   191A      3.308985  
     192A      3.378459   193A      3.378461   194A      3.490873  
     195A      3.490874   196A      3.494902   197A      3.535750  
     198A      3.578373   199A      3.578374   200A      3.686383  
     201A      3.729089   202A      3.869304   203A      3.869304  
     204A      3.931851   205A      4.017973   206A      4.017973  
     207A      4.118305   208A      4.168822   209A      4.168822  
     210A      4.216147   211A      4.229914   212A      4.229914  
     213A      4.235291   214A      4.249015   215A      4.272490  
     216A      4.272492   217A      4.294167   218A      4.324693  
     219A      4.324693   220A      4.342813   221A      4.343475  
     222A      4.443812   223A      4.443813   224A      4.492818  
     225A      4.492819   226A      4.619051   227A      4.768784  
     228A      4.802953   229A      4.802955   230A      4.815303  
     231A      4.815303   232A      4.859809   233A      4.860377  
     234A      4.900117   235A      4.900117   236A      4.998568  
     237A      4.998568   238A      5.064113   239A      5.104855  
     240A      5.115065   241A      5.115067   242A      5.141665  
     243A      5.141667   244A      5.218039   245A      5.218039  
     246A      5.417864   247A      5.417864   248A      5.487756  
     249A      5.580419   250A      5.609521   251A      5.609521  
     252A      5.713447   253A      6.094601   254A      6.595742  
     255A      6.856495   256A      6.856495   257A      6.860591  
     258A      6.901014   259A      6.915861   260A      6.975482  
     261A      6.975482   262A      7.220795   263A      7.228757  
     264A      7.228758   265A      7.371589   266A      7.426879  
     267A      7.426879   268A      7.534600   269A      7.534603  
     270A      7.611703   271A      7.656678   272A      7.656678  
     273A      7.675795   274A      7.739807   275A      7.739809  
     276A      7.922199   277A      7.922200   278A      7.989096  
     279A      8.039301   280A      8.092002   281A      8.092004  
     282A      8.334362   283A      8.399524   284A      8.399525  
     285A      8.517811   286A      8.611352   287A      8.611353  
     288A      8.632322   289A      8.749399   290A      8.749400  
     291A      8.866155   292A      8.866155   293A      8.953252  
     294A      8.957758   295A      9.016938   296A      9.026825  
     297A      9.026826   298A      9.032204   299A      9.143175  
     300A      9.143175   301A      9.342013   302A      9.342014  
     303A      9.416237   304A      9.447443   305A      9.447446  
     306A      9.483259   307A      9.483260   308A      9.569377  
     309A      9.569378   310A      9.594753   311A      9.743344  
     312A      9.788524   313A      9.875558   314A      9.875559  
     315A      9.939999   316A      9.939999   317A     10.117239  
     318A     10.117240   319A     10.161716   320A     10.307882  
     321A     10.307883   322A     10.365146   323A     10.567087  
     324A     10.567087   325A     10.685660   326A     10.884352  
     327A     10.919607   328A     11.025222   329A     11.025223  
     330A     11.692550   331A     11.801420   332A     12.215583  
     333A     12.215584   334A     12.273411   335A     12.351105  
     336A     12.351106   337A     13.073986   338A     13.149334  
     339A     13.149335   340A     14.531156   341A     14.531156  
     342A     14.842939   343A     14.902602   344A     15.112717  
     345A     15.112719   346A     20.554715   347A     30.036809  
     348A     30.036809   349A     30.327836   350A     30.327837  
     351A     30.957096   352A     36.718628   353A     51.820728  
     354A    139.328040   355A    139.328040   356A    139.567384  
     357A    728.616019  

    Final Occupation by Irrep:
              A 
    DOCC [     5 ]
    NA   [     5 ]
    NB   [     5 ]

  @DF-RHF Final Energy:   -56.22393886193029

   => Energetics <=

    Nuclear Repulsion Energy =             11.9457461853529985
    One-Electron Energy =                 -99.6089946731148501
    Two-Electron Energy =                  31.4393096258315623
    Total Energy =                        -56.2239388619302858

Computation Completed


Properties will be evaluated at   0.000000,   0.000000,   0.000000 [a0]

Properties computed using the SCF density matrix


 Multipole Moments:

 ------------------------------------------------------------------------------------
     Multipole            Electronic (a.u.)      Nuclear  (a.u.)        Total (a.u.)
 ------------------------------------------------------------------------------------

 L = 1.  Multiply by 2.5417464519 to convert [e a0] to [Debye]
 Dipole X            :         -0.0006173            0.0006173           -0.0000000
 Dipole Y            :         62.9512042          -63.5486109           -0.5974067
 Dipole Z            :          0.0000000            0.0000000            0.0000000
 Magnitude           :                                                    0.5974067

 ------------------------------------------------------------------------------------

*** tstop() called on cmpsrv002 at Thu Sep 26 15:27:33 2024
Module time:
	user time   =      18.47 seconds =       0.31 minutes
	system time =       1.24 seconds =       0.02 minutes
	total time  =         15 seconds =       0.25 minutes
Total time:
	user time   =     119.11 seconds =       1.99 minutes
	system time =      14.60 seconds =       0.24 minutes
	total time  =        120 seconds =       2.00 minutes

*** tstart() called on cmpsrv002
*** at Thu Sep 26 15:27:33 2024


  //>>>>>>>>>>>>>>>>>>>>>>>>>>>>>>>>>>>//
  //               DFMP2               //
  //<<<<<<<<<<<<<<<<<<<<<<<<<<<<<<<<<<<//

   => Loading Basis Set <=

    Name: (THIS_BASIS AUX)
    Role: RIFIT
    Keyword: DF_BASIS_MP2
    atoms 1, 4-6 entry H          line    30 file /home/vance/anaconda3/envs/p4env/share/psi4/basis/aug-cc-pvqz-ri.gbs 
    atoms 2      entry BR         line  1518 file /home/vance/anaconda3/envs/p4env/share/psi4/basis/aug-cc-pvqz-ri.gbs 
    atoms 3      entry N          line   258 file /home/vance/anaconda3/envs/p4env/share/psi4/basis/aug-cc-pvqz-ri.gbs 

	 --------------------------------------------------------
	                          DF-MP2                         
	      2nd-Order Density-Fitted Moller-Plesset Theory     
	              RMP2 Wavefunction,   4 Threads             
	                                                         
	        Rob Parrish, Justin Turney, Andy Simmonett,      
	           Ed Hohenstein, and C. David Sherrill          
	 --------------------------------------------------------

   => Auxiliary Basis Set <=

  Basis Set: (THIS_BASIS AUX)
    Blend: AUG-CC-PVQZ-RI
    Number of shells: 168
    Number of basis functions: 750
    Number of Cartesian functions: 1044
    Spherical Harmonics?: true
    Max angular momentum: 6

	 --------------------------------------------------------
	                 NBF =   357, NAUX =   750
	 --------------------------------------------------------
	   CLASS    FOCC     OCC    AOCC    AVIR     VIR    FVIR
	   PAIRS       0       5       5     352     352       0
	 --------------------------------------------------------

	 Will attempt to load fitting metric from file 97.

	-----------------------------------------------------------
	 ==================> DF-MP2 Energies <==================== 
	-----------------------------------------------------------
	 Reference Energy          =     -56.2239388619302858 [Eh]
	 Singles Energy            =      -0.0000000000000000 [Eh]
	 Same-Spin Energy          =      -0.0594042154333958 [Eh]
	 Opposite-Spin Energy      =      -0.2247918071823690 [Eh]
	 Correlation Energy        =      -0.2841960226157648 [Eh]
	 Total Energy              =     -56.5081348845460525 [Eh]
	-----------------------------------------------------------
	 ================> DF-SCS-MP2 Energies <================== 
	-----------------------------------------------------------
	 SCS Same-Spin Scale       =       0.3333333333333333 [-]
	 SCS Opposite-Spin Scale   =       1.2000000000000000 [-]
	 SCS Same-Spin Energy      =      -0.0198014051444653 [Eh]
	 SCS Opposite-Spin Energy  =      -0.2697501686188428 [Eh]
	 SCS Correlation Energy    =      -0.2895515737633081 [Eh]
	 SCS Total Energy          =     -56.5134904356935905 [Eh]
	-----------------------------------------------------------


*** tstop() called on cmpsrv002 at Thu Sep 26 15:27:41 2024
Module time:
	user time   =       5.26 seconds =       0.09 minutes
	system time =       0.73 seconds =       0.01 minutes
	total time  =          8 seconds =       0.13 minutes
Total time:
	user time   =     124.38 seconds =       2.07 minutes
	system time =      15.33 seconds =       0.26 minutes
	total time  =        128 seconds =       2.13 minutes
  Constructing Basis Sets for SAPT...

   => Loading Basis Set <=

    Name: (THIS_BASIS AUX)
    Role: RIFIT
    Keyword: DF_BASIS_SAPT
    atoms 1, 4-6 entry H          line    30 file /home/vance/anaconda3/envs/p4env/share/psi4/basis/aug-cc-pvqz-ri.gbs 
    atoms 2      entry BR         line  1518 file /home/vance/anaconda3/envs/p4env/share/psi4/basis/aug-cc-pvqz-ri.gbs 
    atoms 3      entry N          line   258 file /home/vance/anaconda3/envs/p4env/share/psi4/basis/aug-cc-pvqz-ri.gbs 

   => Loading Basis Set <=

    Name: (THIS_BASIS AUX)
    Role: JKFIT
    Keyword: DF_BASIS_ELST
    atoms 1, 4-6 entry H          line    70 file /home/vance/anaconda3/envs/p4env/share/psi4/basis/aug-cc-pvqz-jkfit.gbs 
    atoms 2      entry BR         line  1612 file /home/vance/anaconda3/envs/p4env/share/psi4/basis/aug-cc-pvqz-jkfit.gbs 
    atoms 3      entry N          line   248 file /home/vance/anaconda3/envs/p4env/share/psi4/basis/aug-cc-pvqz-jkfit.gbs 


  //>>>>>>>>>>>>>>>>>>>>>>>>>>>>>>>>>>>//
  //             SAPT2+DMP2            //
  //<<<<<<<<<<<<<<<<<<<<<<<<<<<<<<<<<<<//


*** tstart() called on cmpsrv002
*** at Thu Sep 26 15:27:41 2024

        SAPT2+  
    Ed Hohenstein
     6 June 2009

      Orbital Information
  --------------------------
    NSO        =       357
    NMO        =       357
    NRI        =       750
    NOCC A     =        18
    NOCC B     =         5
    FOCC A     =         0
    FOCC B     =         0
    NVIR A     =       339
    NVIR B     =       352

    Estimated memory usage: 1706.9 MB

    Natural Orbital Cutoff:   1.000E-06
    Disp(T3) Truncation:            Yes
    CCD (vv|vv) Truncation:         Yes
    MBPT T2 Truncation:             Yes

    Monomer A: 229 virtual orbitals dropped
    Monomer B: 188 virtual orbitals dropped

    Elst10,r            =    -0.008822599014 [Eh]
    Exch10 (S^2)        =     0.004931144757 [Eh]
    Exch10              =     0.004956410527 [Eh]
    Ind20,r (A<-B)      =    -0.000924532606 [Eh]
    Ind20,r (B<-A)      =    -0.001810567631 [Eh]
    Ind20,r             =    -0.002735100237 [Eh]
    Exch-Ind20,r (A<-B) =     0.000212866944 [Eh]
    Exch-Ind20,r (B<-A) =     0.000991317853 [Eh]
    Exch-Ind20,r        =     0.001204184797 [Eh]
    Disp20              =    -0.003138559607 [Eh]
    Disp20 (NO)         =    -0.002665193672 [Eh]
    Exch-Disp20         =     0.000463317259 [Eh]
    Elst12,r            =     0.000109737004 [Eh]
    Exch11              =     0.000288556000 [Eh]
    Exch12              =     0.000108154961 [Eh]
    Ind22               =    -0.000164264168 [Eh]
    Disp21              =     0.000171256750 [Eh]
    Disp22 (SDQ)        =     0.000172391553 [Eh]

    (i =   1 of   5)         38 seconds
    (i =   2 of   5)         68 seconds
    (i =   3 of   5)         96 seconds
    (i =   4 of   5)        124 seconds
    (i =   5 of   5)        152 seconds

    Disp220 (T)         =    -0.000220269569 [Eh]

    (i =   1 of  18)          8 seconds
    (i =   2 of  18)         15 seconds
    (i =   3 of  18)         23 seconds
