
    -----------------------------------------------------------------------
          Psi4: An Open-Source Ab Initio Electronic Structure Package
                               Psi4 1.9.1 release

                         Git: Rev {} zzzzzzz 


    D. G. A. Smith, L. A. Burns, A. C. Simmonett, R. M. Parrish,
    M. C. Schieber, R. Galvelis, P. Kraus, H. Kruse, R. Di Remigio,
    A. Alenaizan, A. M. James, S. Lehtola, J. P. Misiewicz, M. Scheurer,
    R. A. Shaw, J. B. Schriber, Y. Xie, Z. L. Glick, D. A. Sirianni,
    J. S. O'Brien, J. M. Waldrop, A. Kumar, E. G. Hohenstein,
    B. P. Pritchard, B. R. Brooks, H. F. Schaefer III, A. Yu. Sokolov,
    K. Patkowski, A. E. DePrince III, U. Bozkaya, R. A. King,
    F. A. Evangelista, J. M. Turney, T. D. Crawford, C. D. Sherrill,
    J. Chem. Phys. 152(18) 184108 (2020). https://doi.org/10.1063/5.0006002

                            Additional Code Authors
    E. T. Seidl, C. L. Janssen, E. F. Valeev, M. L. Leininger,
    J. F. Gonthier, R. M. Richard, H. R. McAlexander, M. Saitow, X. Wang,
    P. Verma, M. H. Lechner, A. Jiang, S. Behnle, A. G. Heide,
    M. F. Herbst, and D. L. Poole

             Previous Authors, Complete List of Code Contributors,
                       and Citations for Specific Modules
    https://github.com/psi4/psi4/blob/master/codemeta.json
    https://github.com/psi4/psi4/graphs/contributors
    http://psicode.org/psi4manual/master/introduction.html#citing-psifour

    -----------------------------------------------------------------------


    Psi4 started on: Thursday, 26 September 2024 03:25PM

    Process ID: 636593
    Host:       cmpsrv002
    PSIDATADIR: /home/vance/anaconda3/envs/p4env/share/psi4
    Memory:     500.0 MiB
    Threads:    8
    
  ==> Input File <==

--------------------------------------------------------------------------
#charge=0 charge_a=0 charge_b=0 selection_a=1-2 selection_b=3-6 scaling=0.95 benchmark_Eint=-9.780 benchmark_unit=kcal/mol group=XH-N
set_num_threads(4)
memory 8 GB
basis this_basis {
    assign    aug-cc-pVQZ
}

molecule {
     0 1
    --
     0 1
     H        0.00002       -0.93248        0.00000
    Br       -0.00001        0.58174        0.00000
    --
     0 1
     N        0.00003       -2.49629        0.00000
     H       -0.47435       -2.84875        0.82165
     H       -0.47435       -2.84875       -0.82165
     H        0.94878       -2.84876        0.00000
}

set {
    scf_type                DF
    freeze_core             false
    do_ind_exch_sinf        true
    do_disp_exch_sinf       true
}

nrg = energy('sapt2+dmp2')
--------------------------------------------------------------------------
  Threads set to 4 by Python driver.

  Memory set to   7.451 GiB by Python driver.

Scratch directory: /scratch2/vance/psi4/
  SAPT does not make use of molecular symmetry, further calculations in C1 point group.
   => Loading Basis Set <=

    Name: THIS_BASIS
    Role: ORBITAL
    Keyword: BASIS
    atoms 1, 4-6 entry H          line    40 file /home/vance/anaconda3/envs/p4env/share/psi4/basis/aug-cc-pvqz.gbs 
    atoms 2      entry BR         line  5448 file /home/vance/anaconda3/envs/p4env/share/psi4/basis/aug-cc-pvqz.gbs 
    atoms 3      entry N          line   363 file /home/vance/anaconda3/envs/p4env/share/psi4/basis/aug-cc-pvqz.gbs 

   => Loading Basis Set <=

    Name: THIS_BASIS
    Role: ORBITAL
    Keyword: BASIS
    atoms 1, 4-6 entry H          line    40 file /home/vance/anaconda3/envs/p4env/share/psi4/basis/aug-cc-pvqz.gbs 
    atoms 2      entry BR         line  5448 file /home/vance/anaconda3/envs/p4env/share/psi4/basis/aug-cc-pvqz.gbs 
    atoms 3      entry N          line   363 file /home/vance/anaconda3/envs/p4env/share/psi4/basis/aug-cc-pvqz.gbs 


  //>>>>>>>>>>>>>>>>>>>>>>>>>>>>>>>>>>>//
  //              Dimer HF             //
  //<<<<<<<<<<<<<<<<<<<<<<<<<<<<<<<<<<<//

   => Libint2 <=

    Primary   basis highest AM E, G, H:  6, 6, 3
    Auxiliary basis highest AM E, G, H:  7, 7, 4
    Onebody   basis highest AM E, G, H:  -, -, -
    Solid Harmonics ordering:            Gaussian

*** tstart() called on cmpsrv002
*** at Thu Sep 26 15:25:33 2024

   => Loading Basis Set <=

    Name: THIS_BASIS
    Role: ORBITAL
    Keyword: BASIS
    atoms 1, 4-6 entry H          line    40 file /home/vance/anaconda3/envs/p4env/share/psi4/basis/aug-cc-pvqz.gbs 
    atoms 2      entry BR         line  5448 file /home/vance/anaconda3/envs/p4env/share/psi4/basis/aug-cc-pvqz.gbs 
    atoms 3      entry N          line   363 file /home/vance/anaconda3/envs/p4env/share/psi4/basis/aug-cc-pvqz.gbs 


         ---------------------------------------------------------
                                   SCF
               by Justin Turney, Rob Parrish, Andy Simmonett
                          and Daniel G. A. Smith
                              RHF Reference
                        4 Threads,   7629 MiB Core
         ---------------------------------------------------------

  ==> Geometry <==

    Molecular point group: c1
    Full point group: Cs

    Geometry (in Angstrom), charge = 0, multiplicity = 1:

       Center              X                  Y                   Z               Mass       
    ------------   -----------------  -----------------  -----------------  -----------------
         H            0.000022767418    -0.946933527270     0.000000000000     1.007825032230
         BR          -0.000007232582     0.567286472730     0.000000000000    78.918337600000
         N            0.000032767418    -2.510743527270     0.000000000000    14.003074004430
         H           -0.474347232582    -2.863203527270     0.821650000000     1.007825032230
         H           -0.474347232582    -2.863203527270    -0.821650000000     1.007825032230
         H            0.948782767418    -2.863213527270     0.000000000000     1.007825032230

  Running in c1 symmetry.

  Rotational constants: A =      6.19413  B =      0.11979  C =      0.11979 [cm^-1]
  Rotational constants: A = 185695.44928  B =   3591.35880  C =   3591.35833 [MHz]
  Nuclear repulsion =   85.020009787254793

  Charge       = 0
  Multiplicity = 1
  Electrons    = 46
  Nalpha       = 23
  Nbeta        = 23

  ==> Algorithm <==

  SCF Algorithm Type is DF.
  DIIS enabled.
  MOM disabled.
  Fractional occupation disabled.
  Guess Type is SAD.
  Energy threshold   = 1.00e-08
  Density threshold  = 1.00e-08
  Integral threshold = 1.00e-12

  ==> Primary Basis <==

  Basis Set: THIS_BASIS
    Blend: AUG-CC-PVQZ
    Number of shells: 101
    Number of basis functions: 357
    Number of Cartesian functions: 444
    Spherical Harmonics?: true
    Max angular momentum: 4

   => Loading Basis Set <=

    Name: (THIS_BASIS AUX)
    Role: JKFIT
    Keyword: DF_BASIS_SCF
    atoms 1, 4-6 entry H          line    70 file /home/vance/anaconda3/envs/p4env/share/psi4/basis/aug-cc-pvqz-jkfit.gbs 
    atoms 2      entry BR         line  1612 file /home/vance/anaconda3/envs/p4env/share/psi4/basis/aug-cc-pvqz-jkfit.gbs 
    atoms 3      entry N          line   248 file /home/vance/anaconda3/envs/p4env/share/psi4/basis/aug-cc-pvqz-jkfit.gbs 

  ==> Integral Setup <==

  ==> DiskDFJK: Density-Fitted J/K Matrices <==

    J tasked:                  Yes
    K tasked:                  Yes
    wK tasked:                  No
    OpenMP threads:              4
    Integrals threads:           4
    Memory [MiB]:             5722
    Algorithm:                Core
    Integral Cache:           SAVE
    Schwarz Cutoff:          1E-12
    Fitting Condition:       1E-10

   => Auxiliary Basis Set <=

  Basis Set: (THIS_BASIS AUX)
    Blend: AUG-CC-PVQZ-JKFIT
    Number of shells: 166
    Number of basis functions: 716
    Number of Cartesian functions: 973
    Spherical Harmonics?: true
    Max angular momentum: 5

  Minimum eigenvalue in the overlap matrix is 8.8917621142E-06.
  Reciprocal condition number of the overlap matrix is 7.2644453172E-07.
    Using symmetric orthogonalization.

  ==> Pre-Iterations <==

  SCF Guess: Superposition of Atomic Densities via on-the-fly atomic UHF (no occupation information).

   -------------------------
    Irrep   Nso     Nmo    
   -------------------------
     A        357     357 
   -------------------------
    Total     357     357
   -------------------------

  ==> Iterations <==

                           Total Energy        Delta E     RMS |[F,P]|

   @DF-RHF iter SAD: -2627.02455234550189   -2.62702e+03   0.00000e+00 
   @DF-RHF iter   1: -2628.97231361443710   -1.94776e+00   3.68252e-03 DIIS/ADIIS
   @DF-RHF iter   2: -2629.20283967556043   -2.30526e-01   2.05261e-03 DIIS/ADIIS
   @DF-RHF iter   3: -2629.27704191769635   -7.42022e-02   8.46954e-05 DIIS
   @DF-RHF iter   4: -2629.27791691921402   -8.75002e-04   2.37575e-05 DIIS
   @DF-RHF iter   5: -2629.27799674574271   -7.98265e-05   6.64881e-06 DIIS
   @DF-RHF iter   6: -2629.27800379647169   -7.05073e-06   2.33837e-06 DIIS
   @DF-RHF iter   7: -2629.27800440981628   -6.13345e-07   6.59460e-07 DIIS
   @DF-RHF iter   8: -2629.27800449510914   -8.52929e-08   2.00048e-07 DIIS
   @DF-RHF iter   9: -2629.27800450008726   -4.97812e-09   4.17007e-08 DIIS
   @DF-RHF iter  10: -2629.27800450037512   -2.87855e-10   6.89602e-09 DIIS
  Energy and wave function converged.


  ==> Post-Iterations <==

    Orbital Energies [Eh]
    ---------------------

    Doubly Occupied:                                                      

       1A   -489.969491     2A    -65.110505     3A    -58.465432  
       4A    -58.464805     5A    -58.464805     6A    -15.602564  
       7A     -9.783920     8A     -7.393793     9A     -7.390122  
      10A     -7.390122    11A     -3.136532    12A     -3.134312  
      13A     -3.134312    14A     -3.129857    15A     -3.129857  
      16A     -1.209192    17A     -0.968086    18A     -0.694473  
      19A     -0.694472    20A     -0.600726    21A     -0.417764  
      22A     -0.380988    23A     -0.380988  

    Virtual:                                                              

      24A      0.013666    25A      0.036256    26A      0.036256  
      27A      0.049232    28A      0.089842    29A      0.098807  
      30A      0.098807    31A      0.104351    32A      0.124083  
      33A      0.124083    34A      0.138072    35A      0.160710  
      36A      0.160710    37A      0.164734    38A      0.189542  
      39A      0.189543    40A      0.239537    41A      0.253010  
      42A      0.253011    43A      0.260947    44A      0.267369  
      45A      0.297070    46A      0.297070    47A      0.302772  
      48A      0.302772    49A      0.304444    50A      0.322731  
      51A      0.349986    52A      0.349986    53A      0.365747  
      54A      0.365748    55A      0.374337    56A      0.390090  
      57A      0.404900    58A      0.404902    59A      0.417565  
      60A      0.431645    61A      0.431647    62A      0.441056  
      63A      0.508464    64A      0.508468    65A      0.533139  
      66A      0.533141    67A      0.566702    68A      0.598646  
      69A      0.598646    70A      0.614480    71A      0.615738  
      72A      0.615740    73A      0.658533    74A      0.681153  
      75A      0.687711    76A      0.697113    77A      0.697114  
      78A      0.710352    79A      0.710944    80A      0.710945  
      81A      0.744653    82A      0.744654    83A      0.745569  
      84A      0.750144    85A      0.768787    86A      0.787444  
      87A      0.787445    88A      0.852198    89A      0.852199  
      90A      0.860538    91A      0.874745    92A      0.874751  
      93A      0.886696    94A      0.886697    95A      0.889462  
      96A      0.923235    97A      0.934650    98A      0.934651  
      99A      0.950292   100A      1.005923   101A      1.005925  
     102A      1.035746   103A      1.035750   104A      1.105872  
     105A      1.132207   106A      1.143627   107A      1.143628  
     108A      1.249088   109A      1.249093   110A      1.267704  
     111A      1.306359   112A      1.306360   113A      1.328305  
     114A      1.360913   115A      1.395220   116A      1.395221  
     117A      1.403405   118A      1.403406   119A      1.420434  
     120A      1.428322   121A      1.493870   122A      1.493870  
     123A      1.509316   124A      1.525905   125A      1.525907  
     126A      1.530384   127A      1.549328   128A      1.551192  
     129A      1.551197   130A      1.553330   131A      1.553331  
     132A      1.571881   133A      1.623447   134A      1.623452  
     135A      1.644417   136A      1.652656   137A      1.668411  
     138A      1.673934   139A      1.673936   140A      1.718619  
     141A      1.718621   142A      1.722561   143A      1.722562  
     144A      1.801716   145A      1.811555   146A      1.830028  
     147A      1.855506   148A      1.855508   149A      1.869449  
     150A      1.869450   151A      1.937284   152A      1.937289  
     153A      1.973402   154A      1.973403   155A      1.974578  
     156A      1.997119   157A      2.005236   158A      2.005240  
     159A      2.025452   160A      2.031609   161A      2.040419  
     162A      2.040419   163A      2.099526   164A      2.135050  
     165A      2.153403   166A      2.153404   167A      2.169273  
     168A      2.199835   169A      2.199837   170A      2.299723  
     171A      2.325160   172A      2.325161   173A      2.366691  
     174A      2.425441   175A      2.474905   176A      2.474905  
     177A      2.476448   178A      2.574223   179A      2.574230  
     180A      2.584635   181A      2.594264   182A      2.594266  
     183A      2.654140   184A      2.654140   185A      2.689400  
     186A      2.880389   187A      2.886946   188A      2.886946  
     189A      2.920259   190A      2.932085   191A      2.932089  
     192A      2.996421   193A      2.996422   194A      3.063376  
     195A      3.089919   196A      3.089928   197A      3.109951  
     198A      3.116589   199A      3.118951   200A      3.118954  
     201A      3.197399   202A      3.234865   203A      3.234867  
     204A      3.335922   205A      3.335926   206A      3.363658  
     207A      3.426100   208A      3.426104   209A      3.456667  
     210A      3.464307   211A      3.508501   212A      3.508504  
     213A      3.510006   214A      3.561743   215A      3.563238  
     216A      3.563239   217A      3.644172   218A      3.644179  
     219A      3.655070   220A      3.714106   221A      3.714108  
     222A      3.717987   223A      3.717989   224A      3.726961  
     225A      3.729031   226A      3.823979   227A      3.829143  
     228A      3.829148   229A      3.863869   230A      3.863869  
     231A      4.006043   232A      4.033909   233A      4.033914  
     234A      4.094057   235A      4.156614   236A      4.156616  
     237A      4.182287   238A      4.203938   239A      4.211667  
     240A      4.211667   241A      4.248200   242A      4.248201  
     243A      4.282017   244A      4.290800   245A      4.290800  
     246A      4.452406   247A      4.555174   248A      4.555182  
     249A      4.625992   250A      4.654728   251A      4.654738  
     252A      4.825127   253A      4.825129   254A      4.965252  
     255A      4.968484   256A      4.968491   257A      5.126492  
     258A      5.126500   259A      5.143749   260A      5.271886  
     261A      5.271888   262A      5.352100   263A      5.424259  
     264A      5.476533   265A      5.476537   266A      5.656144  
     267A      5.857615   268A      6.720658   269A      6.729072  
     270A      6.836251   271A      6.845186   272A      6.845192  
     273A      6.964298   274A      6.964308   275A      7.133789  
     276A      7.133790   277A      7.323726   278A      7.350530  
     279A      7.353262   280A      7.353263   281A      7.507767  
     282A      7.507771   283A      7.646002   284A      7.684829  
     285A      7.708911   286A      7.853411   287A      7.853415  
     288A      7.888591   289A      7.888593   290A      8.037983  
     291A      8.040056   292A      8.040063   293A      8.176615  
     294A      8.176617   295A      8.321706   296A      8.405369  
     297A      8.405379   298A      8.550349   299A      8.551490  
     300A      8.551501   301A      8.709005   302A      8.709007  
     303A      8.772825   304A      8.836246   305A      8.836250  
     306A      8.907943   307A      8.907947   308A      8.920806  
     309A      8.923754   310A      8.940229   311A      8.940237  
     312A      8.997920   313A      9.022665   314A      9.129139  
     315A      9.129145   316A      9.158743   317A      9.312040  
     318A      9.312045   319A      9.494242   320A      9.494250  
     321A      9.616076   322A      9.664347   323A      9.664356  
     324A      9.694648   325A      9.716745   326A      9.716748  
     327A      9.839925   328A      9.930897   329A      9.930898  
     330A      9.955034   331A     10.150080   332A     10.150086  
     333A     10.357505   334A     10.407376   335A     10.514711  
     336A     10.514712   337A     10.689127   338A     10.689136  
     339A     10.828851   340A     11.012536   341A     11.012546  
     342A     11.224807   343A     11.468788   344A     11.954606  
     345A     12.164277   346A     12.164301   347A     12.361261  
     348A     12.430714   349A     12.430747   350A     13.017738  
     351A     13.134549   352A     13.134566   353A     15.066813  
     354A     15.066856   355A     15.102288   356A     15.416706  
     357A     37.322817  

    Final Occupation by Irrep:
              A 
    DOCC [    23 ]
    NA   [    23 ]
    NB   [    23 ]

  @DF-RHF Final Energy: -2629.27800450037512

   => Energetics <=

    Nuclear Repulsion Energy =             85.0200097872547929
    One-Electron Energy =               -3830.5017894572069963
    Two-Electron Energy =                1116.2037751695775114
    Total Energy =                      -2629.2780045003746636

Computation Completed


Properties will be evaluated at   0.000000,   0.000000,   0.000000 [a0]

Properties computed using the SCF density matrix


 Multipole Moments:

 ------------------------------------------------------------------------------------
     Multipole            Electronic (a.u.)      Nuclear  (a.u.)        Total (a.u.)
 ------------------------------------------------------------------------------------

 L = 1.  Multiply by 2.5417464519 to convert [e a0] to [Debye]
 Dipole X            :         -0.0001442            0.0001650            0.0000208
 Dipole Y            :         11.5651083          -13.7132365           -2.1481282
 Dipole Z            :          0.0000000            0.0000000            0.0000000
 Magnitude           :                                                    2.1481282

 ------------------------------------------------------------------------------------

*** tstop() called on cmpsrv002 at Thu Sep 26 15:26:11 2024
Module time:
	user time   =      38.95 seconds =       0.65 minutes
	system time =       7.00 seconds =       0.12 minutes
	total time  =         38 seconds =       0.63 minutes
Total time:
	user time   =      38.95 seconds =       0.65 minutes
	system time =       7.00 seconds =       0.12 minutes
	total time  =         38 seconds =       0.63 minutes

*** tstart() called on cmpsrv002
*** at Thu Sep 26 15:26:11 2024


  //>>>>>>>>>>>>>>>>>>>>>>>>>>>>>>>>>>>//
  //               DFMP2               //
  //<<<<<<<<<<<<<<<<<<<<<<<<<<<<<<<<<<<//

   => Loading Basis Set <=

    Name: (THIS_BASIS AUX)
    Role: RIFIT
    Keyword: DF_BASIS_MP2
    atoms 1, 4-6 entry H          line    30 file /home/vance/anaconda3/envs/p4env/share/psi4/basis/aug-cc-pvqz-ri.gbs 
    atoms 2      entry BR         line  1518 file /home/vance/anaconda3/envs/p4env/share/psi4/basis/aug-cc-pvqz-ri.gbs 
    atoms 3      entry N          line   258 file /home/vance/anaconda3/envs/p4env/share/psi4/basis/aug-cc-pvqz-ri.gbs 

	 --------------------------------------------------------
	                          DF-MP2                         
	      2nd-Order Density-Fitted Moller-Plesset Theory     
	              RMP2 Wavefunction,   4 Threads             
	                                                         
	        Rob Parrish, Justin Turney, Andy Simmonett,      
	           Ed Hohenstein, and C. David Sherrill          
	 --------------------------------------------------------

   => Auxiliary Basis Set <=

  Basis Set: (THIS_BASIS AUX)
    Blend: AUG-CC-PVQZ-RI
    Number of shells: 168
    Number of basis functions: 750
    Number of Cartesian functions: 1044
    Spherical Harmonics?: true
    Max angular momentum: 6

	 --------------------------------------------------------
	                 NBF =   357, NAUX =   750
	 --------------------------------------------------------
	   CLASS    FOCC     OCC    AOCC    AVIR     VIR    FVIR
	   PAIRS       0      23      23     334     334       0
	 --------------------------------------------------------

	 Will save fitting metric to file 97.

	-----------------------------------------------------------
	 ==================> DF-MP2 Energies <==================== 
	-----------------------------------------------------------
	 Reference Energy          =   -2629.2780045003751184 [Eh]
	 Singles Energy            =      -0.0000000000000000 [Eh]
	 Same-Spin Energy          =      -0.1841790191181567 [Eh]
	 Opposite-Spin Energy      =      -0.5152299778396625 [Eh]
	 Correlation Energy        =      -0.6994089969578192 [Eh]
	 Total Energy              =   -2629.9774134973331456 [Eh]
	-----------------------------------------------------------
	 ================> DF-SCS-MP2 Energies <================== 
	-----------------------------------------------------------
	 SCS Same-Spin Scale       =       0.3333333333333333 [-]
	 SCS Opposite-Spin Scale   =       1.2000000000000000 [-]
	 SCS Same-Spin Energy      =      -0.0613930063727189 [Eh]
	 SCS Opposite-Spin Energy  =      -0.6182759734075950 [Eh]
	 SCS Correlation Energy    =      -0.6796689797803139 [Eh]
	 SCS Total Energy          =   -2629.9576734801553357 [Eh]
	-----------------------------------------------------------


*** tstop() called on cmpsrv002 at Thu Sep 26 15:26:21 2024
Module time:
	user time   =      12.18 seconds =       0.20 minutes
	system time =       1.99 seconds =       0.03 minutes
	total time  =         10 seconds =       0.17 minutes
Total time:
	user time   =      51.13 seconds =       0.85 minutes
	system time =       8.99 seconds =       0.15 minutes
	total time  =         48 seconds =       0.80 minutes

  //>>>>>>>>>>>>>>>>>>>>>>>>>>>>>>>>>>>//
  //            Monomer A HF           //
  //<<<<<<<<<<<<<<<<<<<<<<<<<<<<<<<<<<<//

   => Libint2 <=

    Primary   basis highest AM E, G, H:  6, 6, 3
    Auxiliary basis highest AM E, G, H:  7, 7, 4
    Onebody   basis highest AM E, G, H:  -, -, -
    Solid Harmonics ordering:            Gaussian

*** tstart() called on cmpsrv002
*** at Thu Sep 26 15:26:21 2024

   => Loading Basis Set <=

    Name: THIS_BASIS
    Role: ORBITAL
    Keyword: BASIS
    atoms 1, 4-6 entry H          line    40 file /home/vance/anaconda3/envs/p4env/share/psi4/basis/aug-cc-pvqz.gbs 
    atoms 2      entry BR         line  5448 file /home/vance/anaconda3/envs/p4env/share/psi4/basis/aug-cc-pvqz.gbs 
    atoms 3      entry N          line   363 file /home/vance/anaconda3/envs/p4env/share/psi4/basis/aug-cc-pvqz.gbs 


         ---------------------------------------------------------
                                   SCF
               by Justin Turney, Rob Parrish, Andy Simmonett
                          and Daniel G. A. Smith
                              RHF Reference
                        4 Threads,   7629 MiB Core
         ---------------------------------------------------------

  ==> Geometry <==

    Molecular point group: c1
    Full point group: Cs

    Geometry (in Angstrom), charge = 0, multiplicity = 1:

       Center              X                  Y                   Z               Mass       
    ------------   -----------------  -----------------  -----------------  -----------------
         H            0.000022767418    -0.946933527270     0.000000000000     1.007825032230
         BR          -0.000007232582     0.567286472730     0.000000000000    78.918337600000
      Gh(N)           0.000032767418    -2.510743527270     0.000000000000    14.003074004430
      Gh(H)          -0.474347232582    -2.863203527270     0.821650000000     1.007825032230
      Gh(H)          -0.474347232582    -2.863203527270    -0.821650000000     1.007825032230
      Gh(H)           0.948782767418    -2.863213527270     0.000000000000     1.007825032230

  Running in c1 symmetry.

  Rotational constants: A =      6.19413  B =      0.11979  C =      0.11979 [cm^-1]
  Rotational constants: A = 185695.44928  B =   3591.35880  C =   3591.35833 [MHz]
  Nuclear repulsion =   12.231513498576831

  Charge       = 0
  Multiplicity = 1
  Electrons    = 36
  Nalpha       = 18
  Nbeta        = 18

  ==> Algorithm <==

  SCF Algorithm Type is DF.
  DIIS enabled.
  MOM disabled.
  Fractional occupation disabled.
  Guess Type is SAD.
  Energy threshold   = 1.00e-08
  Density threshold  = 1.00e-08
  Integral threshold = 1.00e-12

  ==> Primary Basis <==

  Basis Set: THIS_BASIS
    Blend: AUG-CC-PVQZ
    Number of shells: 101
    Number of basis functions: 357
    Number of Cartesian functions: 444
    Spherical Harmonics?: true
    Max angular momentum: 4

   => Loading Basis Set <=

    Name: (THIS_BASIS AUX)
    Role: JKFIT
    Keyword: DF_BASIS_SCF
    atoms 1, 4-6 entry H          line    70 file /home/vance/anaconda3/envs/p4env/share/psi4/basis/aug-cc-pvqz-jkfit.gbs 
    atoms 2      entry BR         line  1612 file /home/vance/anaconda3/envs/p4env/share/psi4/basis/aug-cc-pvqz-jkfit.gbs 
    atoms 3      entry N          line   248 file /home/vance/anaconda3/envs/p4env/share/psi4/basis/aug-cc-pvqz-jkfit.gbs 

  ==> Integral Setup <==

  ==> DiskDFJK: Density-Fitted J/K Matrices <==

    J tasked:                  Yes
    K tasked:                  Yes
    wK tasked:                  No
    OpenMP threads:              4
    Integrals threads:           4
    Memory [MiB]:             5722
    Algorithm:                Core
    Integral Cache:           LOAD
    Schwarz Cutoff:          1E-12
    Fitting Condition:       1E-10

   => Auxiliary Basis Set <=

  Basis Set: (THIS_BASIS AUX)
    Blend: AUG-CC-PVQZ-JKFIT
    Number of shells: 166
    Number of basis functions: 716
    Number of Cartesian functions: 973
    Spherical Harmonics?: true
    Max angular momentum: 5

  Minimum eigenvalue in the overlap matrix is 8.8917621142E-06.
  Reciprocal condition number of the overlap matrix is 7.2644453172E-07.
    Using symmetric orthogonalization.

  ==> Pre-Iterations <==

  SCF Guess: Superposition of Atomic Densities via on-the-fly atomic UHF (no occupation information).

   -------------------------
    Irrep   Nso     Nmo    
   -------------------------
     A        357     357 
   -------------------------
    Total     357     357
   -------------------------

  ==> Iterations <==

                           Total Energy        Delta E     RMS |[F,P]|

   @DF-RHF iter SAD: -2571.14384272787083   -2.57114e+03   0.00000e+00 
   @DF-RHF iter   1: -2572.80796429295333   -1.66412e+00   3.48581e-03 DIIS/ADIIS
   @DF-RHF iter   2: -2572.98064684968858   -1.72683e-01   1.97176e-03 DIIS/ADIIS
   @DF-RHF iter   3: -2573.04615827804218   -6.55114e-02   5.47630e-05 DIIS
   @DF-RHF iter   4: -2573.04662505035594   -4.66772e-04   1.88334e-05 DIIS
   @DF-RHF iter   5: -2573.04669848893309   -7.34386e-05   4.78662e-06 DIIS
   @DF-RHF iter   6: -2573.04670283019550   -4.34126e-06   8.31357e-07 DIIS
   @DF-RHF iter   7: -2573.04670291396087   -8.37654e-08   2.06775e-07 DIIS
   @DF-RHF iter   8: -2573.04670292098217   -7.02130e-09   2.87698e-08 DIIS
   @DF-RHF iter   9: -2573.04670292111678   -1.34605e-10   4.44125e-09 DIIS
  Energy and wave function converged.


  ==> Post-Iterations <==

    Orbital Energies [Eh]
    ---------------------

    Doubly Occupied:                                                      

       1A   -490.039746     2A    -65.179488     3A    -58.534969  
       4A    -58.533514     5A    -58.533514     6A     -9.851932  
       7A     -7.463421     8A     -7.456726     9A     -7.456726  
      10A     -3.207251    11A     -3.203532    12A     -3.203532  
      13A     -3.194912    14A     -3.194912    15A     -1.020562  
      16A     -0.564751    17A     -0.433628    18A     -0.433628  

    Virtual:                                                              

      19A      0.018937    20A      0.042303    21A      0.042699  
      22A      0.042699    23A      0.076090    24A      0.082026  
      25A      0.088884    26A      0.088884    27A      0.122471  
      28A      0.122471    29A      0.128037    30A      0.150614  
      31A      0.172680    32A      0.179702    33A      0.179702  
      34A      0.207331    35A      0.207331    36A      0.237014  
      37A      0.237015    38A      0.260573    39A      0.274871  
      40A      0.277361    41A      0.277361    42A      0.284755  
      43A      0.298071    44A      0.298072    45A      0.298990  
      46A      0.339605    47A      0.339605    48A      0.349566  
      49A      0.382159    50A      0.396507    51A      0.396510  
      52A      0.408183    53A      0.410130    54A      0.410131  
      55A      0.457216    56A      0.458017    57A      0.458017  
      58A      0.535105    59A      0.545347    60A      0.545349  
      61A      0.569068    62A      0.569069    63A      0.569865  
      64A      0.589582    65A      0.589582    66A      0.621946  
      67A      0.621947    68A      0.632495    69A      0.632495  
      70A      0.647143    71A      0.648226    72A      0.664061  
      73A      0.702490    74A      0.702490    75A      0.710350  
      76A      0.727790    77A      0.761490    78A      0.767112  
      79A      0.779327    80A      0.779328    81A      0.837554  
      82A      0.837554    83A      0.843239    84A      0.876977  
      85A      0.876979    86A      0.881337    87A      0.881341  
      88A      0.890236    89A      0.909590    90A      0.947669  
      91A      0.947670    92A      0.958650    93A      0.985949  
      94A      0.985950    95A      1.054958    96A      1.078727  
      97A      1.078728    98A      1.083649    99A      1.092208  
     100A      1.092209   101A      1.131350   102A      1.131351  
     103A      1.167932   104A      1.248707   105A      1.248708  
     106A      1.260097   107A      1.298305   108A      1.298307  
     109A      1.375323   110A      1.375323   111A      1.385318  
     112A      1.409258   113A      1.426823   114A      1.426823  
     115A      1.454282   116A      1.454283   117A      1.472414  
     118A      1.503354   119A      1.506056   120A      1.515522  
     121A      1.515523   122A      1.530067   123A      1.558191  
     124A      1.558192   125A      1.585389   126A      1.604115  
     127A      1.613461   128A      1.620483   129A      1.620485  
     130A      1.637468   131A      1.655588   132A      1.655589  
     133A      1.679787   134A      1.679789   135A      1.752953  
     136A      1.802752   137A      1.802753   138A      1.847695  
     139A      1.853141   140A      1.853141   141A      1.853596  
     142A      1.888543   143A      1.888547   144A      1.912221  
     145A      1.935738   146A      1.935740   147A      1.962846  
     148A      1.962851   149A      1.991266   150A      2.043665  
     151A      2.043667   152A      2.053110   153A      2.054491  
     154A      2.082382   155A      2.089850   156A      2.089854  
     157A      2.110892   158A      2.118908   159A      2.118910  
     160A      2.198017   161A      2.200808   162A      2.200810  
     163A      2.212131   164A      2.212724   165A      2.212728  
     166A      2.305031   167A      2.325832   168A      2.325833  
     169A      2.345079   170A      2.410468   171A      2.410471  
     172A      2.499907   173A      2.514359   174A      2.614479  
     175A      2.614482   176A      2.646156   177A      2.646157  
     178A      2.663766   179A      2.663768   180A      2.677619  
     181A      2.805603   182A      2.851393   183A      2.911792  
     184A      2.911793   185A      3.121362   186A      3.130957  
     187A      3.130959   188A      3.160091   189A      3.160097  
     190A      3.194910   191A      3.205788   192A      3.205789  
     193A      3.287034   194A      3.287034   195A      3.299136  
     196A      3.308586   197A      3.313376   198A      3.358124  
     199A      3.411938   200A      3.413047   201A      3.435280  
     202A      3.435281   203A      3.445729   204A      3.445731  
     205A      3.478457   206A      3.497107   207A      3.497108  
     208A      3.549823   209A      3.549827   210A      3.663036  
     211A      3.663038   212A      3.670312   213A      3.674327  
     214A      3.674334   215A      3.675071   216A      3.738497  
     217A      3.738501   218A      3.805246   219A      3.810064  
     220A      3.810065   221A      3.828227   222A      3.851370  
     223A      3.907823   224A      3.907828   225A      3.964930  
     226A      3.964931   227A      4.067125   228A      4.067130  
     229A      4.089503   230A      4.158822   231A      4.158827  
     232A      4.175612   233A      4.240045   234A      4.240049  
     235A      4.302682   236A      4.334654   237A      4.334658  
     238A      4.372312   239A      4.413319   240A      4.413320  
     241A      4.421668   242A      4.578029   243A      4.597155  
     244A      4.597165   245A      4.628596   246A      4.705841  
     247A      4.705848   248A      4.930744   249A      4.930747  
     250A      5.109236   251A      5.195003   252A      5.195015  
     253A      5.288935   254A      5.532452   255A      5.532461  
     256A      5.584122   257A      5.748602   258A      5.848097  
     259A      5.848420   260A      5.848420   261A      5.969593  
     262A      5.969599   263A      6.159801   264A      6.548522  
     265A      6.583169   266A      6.583181   267A      6.702902  
     268A      6.719332   269A      7.036657   270A      7.036664  
     271A      7.108946   272A      7.164382   273A      7.164384  
     274A      7.305448   275A      7.305458   276A      7.637268  
     277A      7.653312   278A      7.653318   279A      7.777552  
     280A      7.874483   281A      8.190699   282A      8.236426  
     283A      8.236427   284A      8.302428   285A      8.328904  
     286A      8.328906   287A      8.363578   288A      8.363581  
     289A      8.482401   290A      8.513510   291A      8.513515  
     292A      8.650901   293A      8.650911   294A      8.812674  
     295A      8.812677   296A      8.819660   297A      8.819666  
     298A      8.908992   299A      9.148550   300A      9.186890  
     301A      9.186895   302A      9.235711   303A      9.237166  
     304A      9.237176   305A      9.249061   306A      9.344061  
     307A      9.344064   308A      9.513681   309A      9.570115  
     310A      9.570121   311A      9.616121   312A      9.635368  
     313A      9.755894   314A      9.755906   315A      9.844767  
     316A     10.105898   317A     10.105903   318A     10.119710  
     319A     10.206755   320A     10.206760   321A     10.436334  
     322A     10.464976   323A     10.644319   324A     10.644338  
     325A     10.805077   326A     10.805086   327A     10.957400  
     328A     10.972004   329A     10.972016   330A     10.999596  
     331A     11.474155   332A     11.474166   333A     11.735064  
     334A     12.137354   335A     12.179887   336A     12.179896  
     337A     12.563353   338A     12.563373   339A     12.668743  
     340A     13.182497   341A     13.182506   342A     13.390068  
     343A     14.020460   344A     14.298470   345A     14.507950  
     346A     14.507982   347A     14.757077   348A     14.757079  
     349A     15.310851   350A     16.084141   351A     16.084151  
     352A     16.457113   353A     18.685343   354A     20.407824  
     355A     21.889300   356A     21.889344   357A     97.193388  

    Final Occupation by Irrep:
              A 
    DOCC [    18 ]
    NA   [    18 ]
    NB   [    18 ]

  @DF-RHF Final Energy: -2573.04670292111678

   => Energetics <=

    Nuclear Repulsion Energy =             12.2315134985768310
    One-Electron Energy =               -3607.5429467130434205
    Two-Electron Energy =                1022.2647302933499986
    Total Energy =                      -2573.0467029211163208

Computation Completed


Properties will be evaluated at   0.000000,   0.000000,   0.000000 [a0]

Properties computed using the SCF density matrix


 Multipole Moments:

 ------------------------------------------------------------------------------------
     Multipole            Electronic (a.u.)      Nuclear  (a.u.)        Total (a.u.)
 ------------------------------------------------------------------------------------

 L = 1.  Multiply by 2.5417464519 to convert [e a0] to [Debye]
 Dipole X            :          0.0004432           -0.0004353            0.0000079
 Dipole Y            :        -36.1293597           35.7311174           -0.3982424
 Dipole Z            :          0.0000000            0.0000000            0.0000000
 Magnitude           :                                                    0.3982424

 ------------------------------------------------------------------------------------

*** tstop() called on cmpsrv002 at Thu Sep 26 15:26:41 2024
Module time:
	user time   =      24.14 seconds =       0.40 minutes
	system time =       3.29 seconds =       0.05 minutes
	total time  =         20 seconds =       0.33 minutes
Total time:
	user time   =      75.28 seconds =       1.25 minutes
	system time =      12.28 seconds =       0.20 minutes
	total time  =         68 seconds =       1.13 minutes

*** tstart() called on cmpsrv002
*** at Thu Sep 26 15:26:41 2024


  //>>>>>>>>>>>>>>>>>>>>>>>>>>>>>>>>>>>//
  //               DFMP2               //
  //<<<<<<<<<<<<<<<<<<<<<<<<<<<<<<<<<<<//

   => Loading Basis Set <=

    Name: (THIS_BASIS AUX)
    Role: RIFIT
    Keyword: DF_BASIS_MP2
    atoms 1, 4-6 entry H          line    30 file /home/vance/anaconda3/envs/p4env/share/psi4/basis/aug-cc-pvqz-ri.gbs 
    atoms 2      entry BR         line  1518 file /home/vance/anaconda3/envs/p4env/share/psi4/basis/aug-cc-pvqz-ri.gbs 
    atoms 3      entry N          line   258 file /home/vance/anaconda3/envs/p4env/share/psi4/basis/aug-cc-pvqz-ri.gbs 

	 --------------------------------------------------------
	                          DF-MP2                         
	      2nd-Order Density-Fitted Moller-Plesset Theory     
	              RMP2 Wavefunction,   4 Threads             
	                                                         
	        Rob Parrish, Justin Turney, Andy Simmonett,      
	           Ed Hohenstein, and C. David Sherrill          
	 --------------------------------------------------------

   => Auxiliary Basis Set <=

  Basis Set: (THIS_BASIS AUX)
    Blend: AUG-CC-PVQZ-RI
    Number of shells: 168
    Number of basis functions: 750
    Number of Cartesian functions: 1044
    Spherical Harmonics?: true
    Max angular momentum: 6

	 --------------------------------------------------------
	                 NBF =   357, NAUX =   750
	 --------------------------------------------------------
	   CLASS    FOCC     OCC    AOCC    AVIR     VIR    FVIR
	   PAIRS       0      18      18     339     339       0
	 --------------------------------------------------------

	 Will attempt to load fitting metric from file 97.

	-----------------------------------------------------------
	 ==================> DF-MP2 Energies <==================== 
	-----------------------------------------------------------
	 Reference Energy          =   -2573.0467029211167755 [Eh]
	 Singles Energy            =      -0.0000000000000000 [Eh]
	 Same-Spin Energy          =      -0.1182762802514699 [Eh]
	 Opposite-Spin Energy      =      -0.2861756447456250 [Eh]
	 Correlation Energy        =      -0.4044519249970949 [Eh]
	 Total Energy              =   -2573.4511548461136954 [Eh]
	-----------------------------------------------------------
	 ================> DF-SCS-MP2 Energies <================== 
	-----------------------------------------------------------
	 SCS Same-Spin Scale       =       0.3333333333333333 [-]
	 SCS Opposite-Spin Scale   =       1.2000000000000000 [-]
	 SCS Same-Spin Energy      =      -0.0394254267504900 [Eh]
	 SCS Opposite-Spin Energy  =      -0.3434107736947500 [Eh]
	 SCS Correlation Energy    =      -0.3828362004452400 [Eh]
	 SCS Total Energy          =   -2573.4295391215619020 [Eh]
	-----------------------------------------------------------


*** tstop() called on cmpsrv002 at Thu Sep 26 15:26:50 2024
Module time:
	user time   =      10.24 seconds =       0.17 minutes
	system time =       1.36 seconds =       0.02 minutes
	total time  =          9 seconds =       0.15 minutes
Total time:
	user time   =      85.52 seconds =       1.43 minutes
	system time =      13.64 seconds =       0.23 minutes
	total time  =         77 seconds =       1.28 minutes

  //>>>>>>>>>>>>>>>>>>>>>>>>>>>>>>>>>>>//
  //            Monomer B HF           //
  //<<<<<<<<<<<<<<<<<<<<<<<<<<<<<<<<<<<//

   => Libint2 <=

    Primary   basis highest AM E, G, H:  6, 6, 3
    Auxiliary basis highest AM E, G, H:  7, 7, 4
    Onebody   basis highest AM E, G, H:  -, -, -
    Solid Harmonics ordering:            Gaussian

*** tstart() called on cmpsrv002
*** at Thu Sep 26 15:26:50 2024

   => Loading Basis Set <=

    Name: THIS_BASIS
    Role: ORBITAL
    Keyword: BASIS
    atoms 1, 4-6 entry H          line    40 file /home/vance/anaconda3/envs/p4env/share/psi4/basis/aug-cc-pvqz.gbs 
    atoms 2      entry BR         line  5448 file /home/vance/anaconda3/envs/p4env/share/psi4/basis/aug-cc-pvqz.gbs 
    atoms 3      entry N          line   363 file /home/vance/anaconda3/envs/p4env/share/psi4/basis/aug-cc-pvqz.gbs 


         ---------------------------------------------------------
                                   SCF
               by Justin Turney, Rob Parrish, Andy Simmonett
                          and Daniel G. A. Smith
                              RHF Reference
                        4 Threads,   7629 MiB Core
         ---------------------------------------------------------

  ==> Geometry <==

    Molecular point group: c1
    Full point group: Cs

    Geometry (in Angstrom), charge = 0, multiplicity = 1:

       Center              X                  Y                   Z               Mass       
    ------------   -----------------  -----------------  -----------------  -----------------
      Gh(H)           0.000022767418    -0.946933527270     0.000000000000     1.007825032230
      Gh(BR)         -0.000007232582     0.567286472730     0.000000000000    78.918337600000
         N            0.000032767418    -2.510743527270     0.000000000000    14.003074004430
         H           -0.474347232582    -2.863203527270     0.821650000000     1.007825032230
         H           -0.474347232582    -2.863203527270    -0.821650000000     1.007825032230
         H            0.948782767418    -2.863213527270     0.000000000000     1.007825032230

  Running in c1 symmetry.

  Rotational constants: A =      6.19413  B =      0.11979  C =      0.11979 [cm^-1]
  Rotational constants: A = 185695.44928  B =   3591.35880  C =   3591.35833 [MHz]
  Nuclear repulsion =   11.945808662741525

  Charge       = 0
  Multiplicity = 1
  Electrons    = 10
  Nalpha       = 5
  Nbeta        = 5

  ==> Algorithm <==

  SCF Algorithm Type is DF.
  DIIS enabled.
  MOM disabled.
  Fractional occupation disabled.
  Guess Type is SAD.
  Energy threshold   = 1.00e-08
  Density threshold  = 1.00e-08
  Integral threshold = 1.00e-12

  ==> Primary Basis <==

  Basis Set: THIS_BASIS
    Blend: AUG-CC-PVQZ
    Number of shells: 101
    Number of basis functions: 357
    Number of Cartesian functions: 444
    Spherical Harmonics?: true
    Max angular momentum: 4

   => Loading Basis Set <=

    Name: (THIS_BASIS AUX)
    Role: JKFIT
    Keyword: DF_BASIS_SCF
    atoms 1, 4-6 entry H          line    70 file /home/vance/anaconda3/envs/p4env/share/psi4/basis/aug-cc-pvqz-jkfit.gbs 
    atoms 2      entry BR         line  1612 file /home/vance/anaconda3/envs/p4env/share/psi4/basis/aug-cc-pvqz-jkfit.gbs 
    atoms 3      entry N          line   248 file /home/vance/anaconda3/envs/p4env/share/psi4/basis/aug-cc-pvqz-jkfit.gbs 

  ==> Integral Setup <==

  ==> DiskDFJK: Density-Fitted J/K Matrices <==

    J tasked:                  Yes
    K tasked:                  Yes
    wK tasked:                  No
    OpenMP threads:              4
    Integrals threads:           4
    Memory [MiB]:             5722
    Algorithm:                Core
    Integral Cache:           LOAD
    Schwarz Cutoff:          1E-12
    Fitting Condition:       1E-10

   => Auxiliary Basis Set <=

  Basis Set: (THIS_BASIS AUX)
    Blend: AUG-CC-PVQZ-JKFIT
    Number of shells: 166
    Number of basis functions: 716
    Number of Cartesian functions: 973
    Spherical Harmonics?: true
    Max angular momentum: 5

  Minimum eigenvalue in the overlap matrix is 8.8917621142E-06.
  Reciprocal condition number of the overlap matrix is 7.2644453172E-07.
    Using symmetric orthogonalization.

  ==> Pre-Iterations <==

  SCF Guess: Superposition of Atomic Densities via on-the-fly atomic UHF (no occupation information).

   -------------------------
    Irrep   Nso     Nmo    
   -------------------------
     A        357     357 
   -------------------------
    Total     357     357
   -------------------------

  ==> Iterations <==

                           Total Energy        Delta E     RMS |[F,P]|

   @DF-RHF iter SAD:   -55.64105786975809   -5.56411e+01   0.00000e+00 
   @DF-RHF iter   1:   -56.12632201619982   -4.85264e-01   1.30908e-03 DIIS/ADIIS
   @DF-RHF iter   2:   -56.19507529062261   -6.87533e-02   7.58726e-04 DIIS/ADIIS
   @DF-RHF iter   3:   -56.22329599974271   -2.82207e-02   6.88943e-05 DIIS
   @DF-RHF iter   4:   -56.22393156909780   -6.35569e-04   1.28530e-05 DIIS
   @DF-RHF iter   5:   -56.22395267355087   -2.11045e-05   2.38338e-06 DIIS
   @DF-RHF iter   6:   -56.22395391062558   -1.23707e-06   6.32291e-07 DIIS
   @DF-RHF iter   7:   -56.22395399779951   -8.71739e-08   1.40250e-07 DIIS
   @DF-RHF iter   8:   -56.22395400232821   -4.52870e-09   2.09463e-08 DIIS
   @DF-RHF iter   9:   -56.22395400242890   -1.00691e-10   5.65757e-09 DIIS
  Energy and wave function converged.


  ==> Post-Iterations <==

    Orbital Energies [Eh]
    ---------------------

    Doubly Occupied:                                                      

       1A    -15.538881     2A     -1.139034     3A     -0.631522  
       4A     -0.631521     5A     -0.424224  

    Virtual:                                                              

       6A      0.024771     7A      0.040568     8A      0.043076  
       9A      0.043076    10A      0.081454    11A      0.081454  
      12A      0.081520    13A      0.111876    14A      0.135779  
      15A      0.136726    16A      0.136726    17A      0.149429  
      18A      0.180043    19A      0.180044    20A      0.208318  
      21A      0.208318    22A      0.247489    23A      0.261959  
      24A      0.261959    25A      0.264193    26A      0.268513  
      27A      0.268513    28A      0.282990    29A      0.285423  
      30A      0.309553    31A      0.309553    32A      0.333954  
      33A      0.339839    34A      0.339839    35A      0.347254  
      36A      0.374533    37A      0.387514    38A      0.387516  
      39A      0.413598    40A      0.413599    41A      0.453272  
      42A      0.455335    43A      0.455336    44A      0.520975  
      45A      0.533205    46A      0.533208    47A      0.557620  
      48A      0.557623    49A      0.567514    50A      0.580180  
      51A      0.650976    52A      0.679221    53A      0.682248  
      54A      0.682248    55A      0.707864    56A      0.716216  
      57A      0.722036    58A      0.722036    59A      0.735870  
      60A      0.738007    61A      0.738009    62A      0.768196  
      63A      0.776183    64A      0.776183    65A      0.777689  
      66A      0.777690    67A      0.784168    68A      0.793669  
      69A      0.793670    70A      0.796109    71A      0.844279  
      72A      0.844280    73A      0.879695    74A      0.893573  
      75A      0.893574    76A      0.906787    77A      0.906791  
      78A      0.935682    79A      0.935683    80A      0.970585  
      81A      0.971280    82A      0.971280    83A      0.979127  
      84A      1.033872    85A      1.064010    86A      1.064013  
      87A      1.093091    88A      1.093095    89A      1.120225  
      90A      1.249291    91A      1.313349    92A      1.323371  
      93A      1.323372    94A      1.355685    95A      1.355689  
      96A      1.371764    97A      1.411501    98A      1.442794  
      99A      1.442796   100A      1.472512   101A      1.481728  
     102A      1.535571   103A      1.535575   104A      1.555846  
     105A      1.572100   106A      1.572102   107A      1.591039  
     108A      1.596994   109A      1.597318   110A      1.597318  
     111A      1.605521   112A      1.605522   113A      1.625974  
     114A      1.702729   115A      1.702731   116A      1.715531  
     117A      1.715533   118A      1.743076   119A      1.794544  
     120A      1.794546   121A      1.827501   122A      1.837393  
     123A      1.870752   124A      1.870754   125A      1.874336  
     126A      1.906440   127A      1.917011   128A      1.917016  
     129A      1.919401   130A      1.934949   131A      1.934952  
     132A      1.952943   133A      1.952945   134A      2.002062  
     135A      2.002063   136A      2.022301   137A      2.023125  
     138A      2.023125   139A      2.037395   140A      2.053183  
     141A      2.065543   142A      2.065543   143A      2.088702  
     144A      2.109977   145A      2.109979   146A      2.121769  
     147A      2.121770   148A      2.177148   149A      2.223068  
     150A      2.223068   151A      2.224598   152A      2.254019  
     153A      2.351591   154A      2.417222   155A      2.417228  
     156A      2.418166   157A      2.433683   158A      2.433685  
     159A      2.512434   160A      2.537596   161A      2.602215  
     162A      2.602217   163A      2.635656   164A      2.674828  
     165A      2.674829   166A      2.723764   167A      2.723768  
     168A      2.732112   169A      2.839818   170A      2.839820  
     171A      2.932983   172A      2.959799   173A      2.959802  
     174A      2.993837   175A      3.007103   176A      3.046628  
     177A      3.046631   178A      3.124724   179A      3.124725  
     180A      3.159676   181A      3.171864   182A      3.208234  
     183A      3.208239   184A      3.228576   185A      3.276167  
     186A      3.276171   187A      3.294477   188A      3.404183  
     189A      3.404187   190A      3.432447   191A      3.432448  
     192A      3.568787   193A      3.586251   194A      3.586258  
     195A      3.680491   196A      3.712469   197A      3.772341  
     198A      3.772350   199A      3.892734   200A      3.892740  
     201A      3.987999   202A      4.026179   203A      4.026182  
     204A      4.073302   205A      4.160539   206A      4.178997  
     207A      4.179000   208A      4.228670   209A      4.284642  
     210A      4.284650   211A      4.335036   212A      4.335036  
     213A      4.346040   214A      4.371192   215A      4.380402  
     216A      4.409032   217A      4.409041   218A      4.522270  
     219A      4.621519   220A      4.621522   221A      4.638146  
     222A      4.638151   223A      4.716516   224A      4.716528  
     225A      4.726830   226A      4.816059   227A      4.846454  
     228A      4.846457   229A      4.878075   230A      4.883010  
     231A      4.936710   232A      4.936712   233A      4.988087  
     234A      4.988091   235A      5.047605   236A      5.047610  
     237A      5.049386   238A      5.184723   239A      5.239400  
     240A      5.239402   241A      5.269111   242A      5.269113  
     243A      5.329548   244A      5.329548   245A      5.484762  
     246A      5.487735   247A      5.487737   248A      5.525171  
     249A      5.690590   250A      5.983905   251A      6.041737  
     252A      6.041744   253A      6.362763   254A      6.850270  
     255A      6.865333   256A      6.955782   257A      6.955782  
     258A      7.033317   259A      7.033328   260A      7.038849  
     261A      7.072836   262A      7.389578   263A      7.432394  
     264A      7.451838   265A      7.451842   266A      7.469243  
     267A      7.469245   268A      7.678198   269A      7.678203  
     270A      7.701509   271A      7.765157   272A      7.944102  
     273A      7.944109   274A      8.062309   275A      8.062309  
     276A      8.130332   277A      8.130333   278A      8.179780  
     279A      8.207953   280A      8.272199   281A      8.272200  
     282A      8.385015   283A      8.496326   284A      8.496335  
     285A      8.633159   286A      8.728346   287A      8.728347  
     288A      8.898538   289A      8.898546   290A      8.945591  
     291A      8.973198   292A      8.973200   293A      8.985458  
     294A      8.994476   295A      9.079050   296A      9.159117  
     297A      9.191268   298A      9.191273   299A      9.330228  
     300A      9.330229   301A      9.395748   302A      9.395751  
     303A      9.501339   304A      9.501340   305A      9.702545  
     306A      9.753092   307A      9.754069   308A      9.754075  
     309A      9.894151   310A      9.894152   311A      9.971759  
     312A      9.996006   313A      9.996013   314A     10.118122  
     315A     10.154455   316A     10.154456   317A     10.255891  
     318A     10.255892   319A     10.458171   320A     10.582082  
     321A     10.582082   322A     10.792099   323A     10.808891  
     324A     10.808901   325A     10.892557   326A     11.076946  
     327A     11.076957   328A     11.260595   329A     11.827155  
     330A     12.035216   331A     12.226789   332A     12.226813  
     333A     12.350781   334A     12.501519   335A     12.501552  
     336A     12.552121   337A     13.076695   338A     13.197386  
     339A     13.197403   340A     14.672687   341A     14.672689  
     342A     14.905257   343A     15.127526   344A     15.127569  
     345A     15.265141   346A     21.081588   347A     30.108109  
     348A     30.108109   349A     30.725114   350A     30.725116  
     351A     31.099777   352A     37.398007   353A     51.989829  
     354A    139.433018   355A    139.433020   356A    139.613217  
     357A    729.197599  

    Final Occupation by Irrep:
              A 
    DOCC [     5 ]
    NA   [     5 ]
    NB   [     5 ]

  @DF-RHF Final Energy:   -56.22395400242890

   => Energetics <=

    Nuclear Repulsion Energy =             11.9458086627415252
    One-Electron Energy =                 -99.6091600241535104
    Two-Electron Energy =                  31.4393973589830864
    Total Energy =                        -56.2239540024288971

Computation Completed


Properties will be evaluated at   0.000000,   0.000000,   0.000000 [a0]

Properties computed using the SCF density matrix


 Multipole Moments:

 ------------------------------------------------------------------------------------
     Multipole            Electronic (a.u.)      Nuclear  (a.u.)        Total (a.u.)
 ------------------------------------------------------------------------------------

 L = 1.  Multiply by 2.5417464519 to convert [e a0] to [Debye]
 Dipole X            :         -0.0006046            0.0006003           -0.0000043
 Dipole Y            :         48.8468474          -49.4443539           -0.5975065
 Dipole Z            :          0.0000000            0.0000000            0.0000000
 Magnitude           :                                                    0.5975065

 ------------------------------------------------------------------------------------

*** tstop() called on cmpsrv002 at Thu Sep 26 15:27:19 2024
Module time:
	user time   =      15.69 seconds =       0.26 minutes
	system time =       1.30 seconds =       0.02 minutes
	total time  =         29 seconds =       0.48 minutes
Total time:
	user time   =     101.24 seconds =       1.69 minutes
	system time =      14.94 seconds =       0.25 minutes
	total time  =        106 seconds =       1.77 minutes

*** tstart() called on cmpsrv002
*** at Thu Sep 26 15:27:19 2024


  //>>>>>>>>>>>>>>>>>>>>>>>>>>>>>>>>>>>//
  //               DFMP2               //
  //<<<<<<<<<<<<<<<<<<<<<<<<<<<<<<<<<<<//

   => Loading Basis Set <=

    Name: (THIS_BASIS AUX)
    Role: RIFIT
    Keyword: DF_BASIS_MP2
    atoms 1, 4-6 entry H          line    30 file /home/vance/anaconda3/envs/p4env/share/psi4/basis/aug-cc-pvqz-ri.gbs 
    atoms 2      entry BR         line  1518 file /home/vance/anaconda3/envs/p4env/share/psi4/basis/aug-cc-pvqz-ri.gbs 
    atoms 3      entry N          line   258 file /home/vance/anaconda3/envs/p4env/share/psi4/basis/aug-cc-pvqz-ri.gbs 

	 --------------------------------------------------------
	                          DF-MP2                         
	      2nd-Order Density-Fitted Moller-Plesset Theory     
	              RMP2 Wavefunction,   4 Threads             
	                                                         
	        Rob Parrish, Justin Turney, Andy Simmonett,      
	           Ed Hohenstein, and C. David Sherrill          
	 --------------------------------------------------------

   => Auxiliary Basis Set <=

  Basis Set: (THIS_BASIS AUX)
    Blend: AUG-CC-PVQZ-RI
    Number of shells: 168
    Number of basis functions: 750
    Number of Cartesian functions: 1044
    Spherical Harmonics?: true
    Max angular momentum: 6

	 --------------------------------------------------------
	                 NBF =   357, NAUX =   750
	 --------------------------------------------------------
	   CLASS    FOCC     OCC    AOCC    AVIR     VIR    FVIR
	   PAIRS       0       5       5     352     352       0
	 --------------------------------------------------------

	 Will attempt to load fitting metric from file 97.

	-----------------------------------------------------------
	 ==================> DF-MP2 Energies <==================== 
	-----------------------------------------------------------
	 Reference Energy          =     -56.2239540024288971 [Eh]
	 Singles Energy            =      -0.0000000000000000 [Eh]
	 Same-Spin Energy          =      -0.0594601024875202 [Eh]
	 Opposite-Spin Energy      =      -0.2252688704992709 [Eh]
	 Correlation Energy        =      -0.2847289729867911 [Eh]
	 Total Energy              =     -56.5086829754156881 [Eh]
	-----------------------------------------------------------
	 ================> DF-SCS-MP2 Energies <================== 
	-----------------------------------------------------------
	 SCS Same-Spin Scale       =       0.3333333333333333 [-]
	 SCS Opposite-Spin Scale   =       1.2000000000000000 [-]
	 SCS Same-Spin Energy      =      -0.0198200341625067 [Eh]
	 SCS Opposite-Spin Energy  =      -0.2703226445991251 [Eh]
	 SCS Correlation Energy    =      -0.2901426787616319 [Eh]
	 SCS Total Energy          =     -56.5140966811905301 [Eh]
	-----------------------------------------------------------


*** tstop() called on cmpsrv002 at Thu Sep 26 15:27:29 2024
Module time:
	user time   =       5.14 seconds =       0.09 minutes
	system time =       0.72 seconds =       0.01 minutes
	total time  =         10 seconds =       0.17 minutes
Total time:
	user time   =     106.38 seconds =       1.77 minutes
	system time =      15.66 seconds =       0.26 minutes
	total time  =        116 seconds =       1.93 minutes
  Constructing Basis Sets for SAPT...

   => Loading Basis Set <=

    Name: (THIS_BASIS AUX)
    Role: RIFIT
    Keyword: DF_BASIS_SAPT
    atoms 1, 4-6 entry H          line    30 file /home/vance/anaconda3/envs/p4env/share/psi4/basis/aug-cc-pvqz-ri.gbs 
    atoms 2      entry BR         line  1518 file /home/vance/anaconda3/envs/p4env/share/psi4/basis/aug-cc-pvqz-ri.gbs 
    atoms 3      entry N          line   258 file /home/vance/anaconda3/envs/p4env/share/psi4/basis/aug-cc-pvqz-ri.gbs 

   => Loading Basis Set <=

    Name: (THIS_BASIS AUX)
    Role: JKFIT
    Keyword: DF_BASIS_ELST
    atoms 1, 4-6 entry H          line    70 file /home/vance/anaconda3/envs/p4env/share/psi4/basis/aug-cc-pvqz-jkfit.gbs 
    atoms 2      entry BR         line  1612 file /home/vance/anaconda3/envs/p4env/share/psi4/basis/aug-cc-pvqz-jkfit.gbs 
    atoms 3      entry N          line   248 file /home/vance/anaconda3/envs/p4env/share/psi4/basis/aug-cc-pvqz-jkfit.gbs 


  //>>>>>>>>>>>>>>>>>>>>>>>>>>>>>>>>>>>//
  //             SAPT2+DMP2            //
  //<<<<<<<<<<<<<<<<<<<<<<<<<<<<<<<<<<<//


*** tstart() called on cmpsrv002
*** at Thu Sep 26 15:27:29 2024

        SAPT2+  
    Ed Hohenstein
     6 June 2009

      Orbital Information
  --------------------------
    NSO        =       357
    NMO        =       357
    NRI        =       750
    NOCC A     =        18
    NOCC B     =         5
    FOCC A     =         0
    FOCC B     =         0
    NVIR A     =       339
    NVIR B     =       352

    Estimated memory usage: 1706.9 MB

    Natural Orbital Cutoff:   1.000E-06
    Disp(T3) Truncation:            Yes
    CCD (vv|vv) Truncation:         Yes
    MBPT T2 Truncation:             Yes

    Monomer A: 227 virtual orbitals dropped
    Monomer B: 183 virtual orbitals dropped

    Elst10,r            =    -0.048330284370 [Eh]
    Exch10 (S^2)        =     0.074889211605 [Eh]
    Exch10              =     0.079415355047 [Eh]
    Ind20,r (A<-B)      =    -0.016516465833 [Eh]
    Ind20,r (B<-A)      =    -0.029348127913 [Eh]
    Ind20,r             =    -0.045864593745 [Eh]
    Exch-Ind20,r (A<-B) =     0.012253282194 [Eh]
    Exch-Ind20,r (B<-A) =     0.016120082328 [Eh]
    Exch-Ind20,r        =     0.028373364523 [Eh]
    Disp20              =    -0.019558131853 [Eh]
    Disp20 (NO)         =    -0.017162338881 [Eh]
    Exch-Disp20         =     0.004262496902 [Eh]
    Elst12,r            =     0.001128310727 [Eh]
    Exch11              =     0.003868787965 [Eh]
    Exch12              =    -0.001558245894 [Eh]
    Ind22               =    -0.001896632054 [Eh]
    Disp21              =     0.001832915847 [Eh]
    Disp22 (SDQ)        =     0.000933175665 [Eh]

    (i =   1 of   5)         38 seconds
    (i =   2 of   5)         58 seconds
    (i =   3 of   5)         84 seconds
    (i =   4 of   5)        106 seconds
    (i =   5 of   5)        128 seconds

    Disp220 (T)         =    -0.001241032479 [Eh]

    (i =   1 of  18)          7 seconds
    (i =   2 of  18)         13 seconds
    (i =   3 of  18)         20 seconds
    (i =   4 of  18)         26 seconds
    (i =   5 of  18)         33 seconds
    (i =   6 of  18)         40 seconds
    (i =   7 of  18)         47 seconds
    (i =   8 of  18)         54 seconds
