
    -----------------------------------------------------------------------
          Psi4: An Open-Source Ab Initio Electronic Structure Package
                               Psi4 1.9.1 release

                         Git: Rev {} zzzzzzz 


    D. G. A. Smith, L. A. Burns, A. C. Simmonett, R. M. Parrish,
    M. C. Schieber, R. Galvelis, P. Kraus, H. Kruse, R. Di Remigio,
    A. Alenaizan, A. M. James, S. Lehtola, J. P. Misiewicz, M. Scheurer,
    R. A. Shaw, J. B. Schriber, Y. Xie, Z. L. Glick, D. A. Sirianni,
    J. S. O'Brien, J. M. Waldrop, A. Kumar, E. G. Hohenstein,
    B. P. Pritchard, B. R. Brooks, H. F. Schaefer III, A. Yu. Sokolov,
    K. Patkowski, A. E. DePrince III, U. Bozkaya, R. A. King,
    F. A. Evangelista, J. M. Turney, T. D. Crawford, C. D. Sherrill,
    J. Chem. Phys. 152(18) 184108 (2020). https://doi.org/10.1063/5.0006002

                            Additional Code Authors
    E. T. Seidl, C. L. Janssen, E. F. Valeev, M. L. Leininger,
    J. F. Gonthier, R. M. Richard, H. R. McAlexander, M. Saitow, X. Wang,
    P. Verma, M. H. Lechner, A. Jiang, S. Behnle, A. G. Heide,
    M. F. Herbst, and D. L. Poole

             Previous Authors, Complete List of Code Contributors,
                       and Citations for Specific Modules
    https://github.com/psi4/psi4/blob/master/codemeta.json
    https://github.com/psi4/psi4/graphs/contributors
    http://psicode.org/psi4manual/master/introduction.html#citing-psifour

    -----------------------------------------------------------------------


    Psi4 started on: Thursday, 26 September 2024 03:25PM

    Process ID: 636595
    Host:       cmpsrv002
    PSIDATADIR: /home/vance/anaconda3/envs/p4env/share/psi4
    Memory:     500.0 MiB
    Threads:    8
    
  ==> Input File <==

--------------------------------------------------------------------------
#charge=0 charge_a=0 charge_b=0 selection_a=1-2 selection_b=3-6 scaling=1.05 benchmark_Eint=-9.769 benchmark_unit=kcal/mol group=XH-N
set_num_threads(4)
memory 8 GB
basis this_basis {
    assign    aug-cc-pVQZ
}

molecule {
     0 1
    --
     0 1
     H        0.00002       -0.93248        0.00000
    Br       -0.00001        0.58174        0.00000
    --
     0 1
     N        0.00003       -2.66090        0.00000
     H       -0.47435       -3.01337        0.82165
     H       -0.47435       -3.01337       -0.82165
     H        0.94878       -3.01337        0.00000
}

set {
    scf_type                DF
    freeze_core             false
    do_ind_exch_sinf        true
    do_disp_exch_sinf       true
}

nrg = energy('sapt2+dmp2')
--------------------------------------------------------------------------
  Threads set to 4 by Python driver.

  Memory set to   7.451 GiB by Python driver.

Scratch directory: /scratch2/vance/psi4/
  SAPT does not make use of molecular symmetry, further calculations in C1 point group.
   => Loading Basis Set <=

    Name: THIS_BASIS
    Role: ORBITAL
    Keyword: BASIS
    atoms 1, 4-6 entry H          line    40 file /home/vance/anaconda3/envs/p4env/share/psi4/basis/aug-cc-pvqz.gbs 
    atoms 2      entry BR         line  5448 file /home/vance/anaconda3/envs/p4env/share/psi4/basis/aug-cc-pvqz.gbs 
    atoms 3      entry N          line   363 file /home/vance/anaconda3/envs/p4env/share/psi4/basis/aug-cc-pvqz.gbs 

   => Loading Basis Set <=

    Name: THIS_BASIS
    Role: ORBITAL
    Keyword: BASIS
    atoms 1, 4-6 entry H          line    40 file /home/vance/anaconda3/envs/p4env/share/psi4/basis/aug-cc-pvqz.gbs 
    atoms 2      entry BR         line  5448 file /home/vance/anaconda3/envs/p4env/share/psi4/basis/aug-cc-pvqz.gbs 
    atoms 3      entry N          line   363 file /home/vance/anaconda3/envs/p4env/share/psi4/basis/aug-cc-pvqz.gbs 


  //>>>>>>>>>>>>>>>>>>>>>>>>>>>>>>>>>>>//
  //              Dimer HF             //
  //<<<<<<<<<<<<<<<<<<<<<<<<<<<<<<<<<<<//

   => Libint2 <=

    Primary   basis highest AM E, G, H:  6, 6, 3
    Auxiliary basis highest AM E, G, H:  7, 7, 4
    Onebody   basis highest AM E, G, H:  -, -, -
    Solid Harmonics ordering:            Gaussian

*** tstart() called on cmpsrv002
*** at Thu Sep 26 15:25:33 2024

   => Loading Basis Set <=

    Name: THIS_BASIS
    Role: ORBITAL
    Keyword: BASIS
    atoms 1, 4-6 entry H          line    40 file /home/vance/anaconda3/envs/p4env/share/psi4/basis/aug-cc-pvqz.gbs 
    atoms 2      entry BR         line  5448 file /home/vance/anaconda3/envs/p4env/share/psi4/basis/aug-cc-pvqz.gbs 
    atoms 3      entry N          line   363 file /home/vance/anaconda3/envs/p4env/share/psi4/basis/aug-cc-pvqz.gbs 


         ---------------------------------------------------------
                                   SCF
               by Justin Turney, Rob Parrish, Andy Simmonett
                          and Daniel G. A. Smith
                              RHF Reference
                        4 Threads,   7629 MiB Core
         ---------------------------------------------------------

  ==> Geometry <==

    Molecular point group: c1
    Full point group: Cs

    Geometry (in Angstrom), charge = 0, multiplicity = 1:

       Center              X                  Y                   Z               Mass       
    ------------   -----------------  -----------------  -----------------  -----------------
         H            0.000022767418    -0.918024996978     0.000000000000     1.007825032230
         BR          -0.000007232582     0.596195003022     0.000000000000    78.918337600000
         N            0.000032767418    -2.646444996978     0.000000000000    14.003074004430
         H           -0.474347232582    -2.998914996978     0.821650000000     1.007825032230
         H           -0.474347232582    -2.998914996978    -0.821650000000     1.007825032230
         H            0.948782767418    -2.998914996978     0.000000000000     1.007825032230

  Running in c1 symmetry.

  Rotational constants: A =      6.19413  B =      0.10839  C =      0.10839 [cm^-1]
  Rotational constants: A = 185695.44926  B =   3249.48133  C =   3249.48095 [MHz]
  Nuclear repulsion =   81.940676800672406

  Charge       = 0
  Multiplicity = 1
  Electrons    = 46
  Nalpha       = 23
  Nbeta        = 23

  ==> Algorithm <==

  SCF Algorithm Type is DF.
  DIIS enabled.
  MOM disabled.
  Fractional occupation disabled.
  Guess Type is SAD.
  Energy threshold   = 1.00e-08
  Density threshold  = 1.00e-08
  Integral threshold = 1.00e-12

  ==> Primary Basis <==

  Basis Set: THIS_BASIS
    Blend: AUG-CC-PVQZ
    Number of shells: 101
    Number of basis functions: 357
    Number of Cartesian functions: 444
    Spherical Harmonics?: true
    Max angular momentum: 4

   => Loading Basis Set <=

    Name: (THIS_BASIS AUX)
    Role: JKFIT
    Keyword: DF_BASIS_SCF
    atoms 1, 4-6 entry H          line    70 file /home/vance/anaconda3/envs/p4env/share/psi4/basis/aug-cc-pvqz-jkfit.gbs 
    atoms 2      entry BR         line  1612 file /home/vance/anaconda3/envs/p4env/share/psi4/basis/aug-cc-pvqz-jkfit.gbs 
    atoms 3      entry N          line   248 file /home/vance/anaconda3/envs/p4env/share/psi4/basis/aug-cc-pvqz-jkfit.gbs 

  ==> Integral Setup <==

  ==> DiskDFJK: Density-Fitted J/K Matrices <==

    J tasked:                  Yes
    K tasked:                  Yes
    wK tasked:                  No
    OpenMP threads:              4
    Integrals threads:           4
    Memory [MiB]:             5722
    Algorithm:                Core
    Integral Cache:           SAVE
    Schwarz Cutoff:          1E-12
    Fitting Condition:       1E-10

   => Auxiliary Basis Set <=

  Basis Set: (THIS_BASIS AUX)
    Blend: AUG-CC-PVQZ-JKFIT
    Number of shells: 166
    Number of basis functions: 716
    Number of Cartesian functions: 973
    Spherical Harmonics?: true
    Max angular momentum: 5

  Minimum eigenvalue in the overlap matrix is 1.1510460948E-05.
  Reciprocal condition number of the overlap matrix is 9.6311367710E-07.
    Using symmetric orthogonalization.

  ==> Pre-Iterations <==

  SCF Guess: Superposition of Atomic Densities via on-the-fly atomic UHF (no occupation information).

   -------------------------
    Irrep   Nso     Nmo    
   -------------------------
     A        357     357 
   -------------------------
    Total     357     357
   -------------------------

  ==> Iterations <==

                           Total Energy        Delta E     RMS |[F,P]|

   @DF-RHF iter SAD: -2626.95681230370292   -2.62696e+03   0.00000e+00 
   @DF-RHF iter   1: -2628.97320326754289   -2.01639e+00   3.67389e-03 DIIS/ADIIS
   @DF-RHF iter   2: -2629.20307159681170   -2.29868e-01   2.04385e-03 DIIS/ADIIS
   @DF-RHF iter   3: -2629.27855373913917   -7.54821e-02   8.41970e-05 DIIS
   @DF-RHF iter   4: -2629.27947556703930   -9.21828e-04   2.34632e-05 DIIS
   @DF-RHF iter   5: -2629.27956042199912   -8.48550e-05   6.06157e-06 DIIS
   @DF-RHF iter   6: -2629.27956734678537   -6.92479e-06   1.53660e-06 DIIS
   @DF-RHF iter   7: -2629.27956777850295   -4.31718e-07   6.50077e-07 DIIS
   @DF-RHF iter   8: -2629.27956783286209   -5.43591e-08   1.31161e-07 DIIS
   @DF-RHF iter   9: -2629.27956783523814   -2.37605e-09   4.08617e-08 DIIS
   @DF-RHF iter  10: -2629.27956783540594   -1.67802e-10   6.28965e-09 DIIS
  Energy and wave function converged.


  ==> Post-Iterations <==

    Orbital Energies [Eh]
    ---------------------

    Doubly Occupied:                                                      

       1A   -489.983009     2A    -65.123660     3A    -58.478726  
       4A    -58.477914     5A    -58.477914     6A    -15.589890  
       7A     -9.796784     8A     -7.407016     9A     -7.402691  
      10A     -7.402691    11A     -3.150036    12A     -3.147474  
      13A     -3.147474    14A     -3.142063    15A     -3.142063  
      16A     -1.193466    17A     -0.976235    18A     -0.681572  
      19A     -0.681570    20A     -0.576698    21A     -0.431459  
      22A     -0.389933    23A     -0.389933  

    Virtual:                                                              

      24A      0.015934    25A      0.037470    26A      0.037470  
      27A      0.048643    28A      0.088270    29A      0.097347  
      30A      0.097347    31A      0.107717    32A      0.125992  
      33A      0.125992    34A      0.136998    35A      0.163522  
      36A      0.164132    37A      0.164132    38A      0.188588  
      39A      0.188588    40A      0.221943    41A      0.248975  
      42A      0.248975    43A      0.263984    44A      0.269556  
      45A      0.292262    46A      0.292262    47A      0.304205  
      48A      0.304205    49A      0.306741    50A      0.323534  
      51A      0.350368    52A      0.350369    53A      0.361718  
      54A      0.369677    55A      0.369678    56A      0.383496  
      57A      0.407000    58A      0.407001    59A      0.416468  
      60A      0.430239    61A      0.430240    62A      0.443389  
      63A      0.505072    64A      0.505075    65A      0.535262  
      66A      0.535266    67A      0.575015    68A      0.594353  
      69A      0.594353    70A      0.608361    71A      0.608363  
      72A      0.624905    73A      0.660546    74A      0.686251  
      75A      0.686266    76A      0.693058    77A      0.693060  
      78A      0.708135    79A      0.715558    80A      0.715558  
      81A      0.735331    82A      0.740695    83A      0.747204  
      84A      0.747204    85A      0.763890    86A      0.784422  
      87A      0.784424    88A      0.845162    89A      0.845162  
      90A      0.864292    91A      0.864295    92A      0.868169  
      93A      0.892948    94A      0.892948    95A      0.896248  
      96A      0.917308    97A      0.939936    98A      0.939936  
      99A      0.965454   100A      1.004256   101A      1.004258  
     102A      1.020955   103A      1.020957   104A      1.081324  
     105A      1.146283   106A      1.146968   107A      1.146969  
     108A      1.207226   109A      1.217887   110A      1.217889  
     111A      1.304523   112A      1.304523   113A      1.333926  
     114A      1.369476   115A      1.392882   116A      1.392882  
     117A      1.410729   118A      1.410730   119A      1.418808  
     120A      1.431045   121A      1.475767   122A      1.488035  
     123A      1.488035   124A      1.514124   125A      1.520182  
     126A      1.520183   127A      1.533440   128A      1.533442  
     129A      1.547049   130A      1.547049   131A      1.555195  
     132A      1.558506   133A      1.607652   134A      1.607655  
     135A      1.627623   136A      1.637270   137A      1.648252  
     138A      1.656192   139A      1.656192   140A      1.696093  
     141A      1.696094   142A      1.728378   143A      1.728381  
     144A      1.790869   145A      1.803898   146A      1.825102  
     147A      1.839542   148A      1.839544   149A      1.859154  
     150A      1.859155   151A      1.908275   152A      1.912272  
     153A      1.912275   154A      1.971247   155A      1.971250  
     156A      1.988033   157A      1.990157   158A      2.007771  
     159A      2.007773   160A      2.012514   161A      2.054350  
     162A      2.054355   163A      2.111905   164A      2.130641  
     165A      2.132254   166A      2.132254   167A      2.165780  
     168A      2.168742   169A      2.168743   170A      2.276464  
     171A      2.340081   172A      2.358350   173A      2.358352  
     174A      2.407068   175A      2.419345   176A      2.419349  
     177A      2.440803   178A      2.501122   179A      2.549348  
     180A      2.549349   181A      2.591455   182A      2.591457  
     183A      2.656865   184A      2.656867   185A      2.699754  
     186A      2.866691   187A      2.866693   188A      2.890564  
     189A      2.895842   190A      2.911172   191A      2.911175  
     192A      2.982399   193A      2.982402   194A      3.043117  
     195A      3.043119   196A      3.045324   197A      3.082541  
     198A      3.116740   199A      3.116743   200A      3.127108  
     201A      3.132951   202A      3.225765   203A      3.225768  
     204A      3.298665   205A      3.298667   206A      3.336600  
     207A      3.405662   208A      3.405666   209A      3.450422  
     210A      3.451918   211A      3.479295   212A      3.479297  
     213A      3.506818   214A      3.536635   215A      3.536636  
     216A      3.558570   217A      3.581858   218A      3.581863  
     219A      3.650230   220A      3.706754   221A      3.706754  
     222A      3.711519   223A      3.717423   224A      3.720433  
     225A      3.720435   226A      3.725170   227A      3.761882  
     228A      3.761885   229A      3.852378   230A      3.852378  
     231A      3.983964   232A      4.007875   233A      4.007878  
     234A      4.096775   235A      4.126092   236A      4.126093  
     237A      4.153515   238A      4.162338   239A      4.162339  
     240A      4.189601   241A      4.192172   242A      4.192174  
     243A      4.252165   244A      4.252172   245A      4.302611  
     246A      4.431402   247A      4.431409   248A      4.431912  
     249A      4.574390   250A      4.574397   251A      4.579079  
     252A      4.817133   253A      4.817137   254A      4.817350  
     255A      4.967162   256A      4.967170   257A      5.090203  
     258A      5.126068   259A      5.126077   260A      5.241857  
     261A      5.241860   262A      5.333418   263A      5.407180  
     264A      5.407181   265A      5.437619   266A      5.557669  
     267A      5.794606   268A      6.685789   269A      6.697198  
     270A      6.833023   271A      6.884405   272A      6.884406  
     273A      6.965635   274A      6.965646   275A      7.063769  
     276A      7.063769   277A      7.272526   278A      7.272529  
     279A      7.313847   280A      7.325736   281A      7.424422  
     282A      7.424434   283A      7.610802   284A      7.652290  
     285A      7.663481   286A      7.756540   287A      7.756542  
     288A      7.832873   289A      7.832882   290A      8.018032  
     291A      8.063914   292A      8.063918   293A      8.153797  
     294A      8.153798   295A      8.316431   296A      8.397377  
     297A      8.397392   298A      8.526915   299A      8.526917  
     300A      8.553709   301A      8.639999   302A      8.640000  
     303A      8.646112   304A      8.766361   305A      8.766366  
     306A      8.876992   307A      8.876997   308A      8.898025  
     309A      8.898028   310A      8.931480   311A      8.941933  
     312A      8.970221   313A      9.013885   314A      9.055846  
     315A      9.113571   316A      9.113578   317A      9.293191  
     318A      9.293192   319A      9.416116   320A      9.416117  
     321A      9.557447   322A      9.581885   323A      9.581892  
     324A      9.689630   325A      9.689633   326A      9.699955  
     327A      9.752333   328A      9.921108   329A      9.921115  
     330A      9.933441   331A     10.113332   332A     10.113343  
     333A     10.272296   334A     10.390639   335A     10.465992  
     336A     10.465997   337A     10.548094   338A     10.548095  
     339A     10.836954   340A     10.950996   341A     11.009208  
     342A     11.009218   343A     11.161712   344A     11.925425  
     345A     12.174272   346A     12.174308   347A     12.286469  
     348A     12.365527   349A     12.365579   350A     13.028975  
     351A     13.131629   352A     13.131657   353A     14.953700  
     354A     15.072408   355A     15.072469   356A     15.192318  
     357A     36.871382  

    Final Occupation by Irrep:
              A 
    DOCC [    23 ]
    NA   [    23 ]
    NB   [    23 ]

  @DF-RHF Final Energy: -2629.27956783540594

   => Energetics <=

    Nuclear Repulsion Energy =             81.9406768006724064
    One-Electron Energy =               -3824.0599514640457528
    Two-Electron Energy =                1112.8397068279673476
    Total Energy =                      -2629.2795678354059419

Computation Completed


Properties will be evaluated at   0.000000,   0.000000,   0.000000 [a0]

Properties computed using the SCF density matrix


 Multipole Moments:

 ------------------------------------------------------------------------------------
     Multipole            Electronic (a.u.)      Nuclear  (a.u.)        Total (a.u.)
 ------------------------------------------------------------------------------------

 L = 1.  Multiply by 2.5417464519 to convert [e a0] to [Debye]
 Dipole X            :         -0.0001475            0.0001650            0.0000174
 Dipole Y            :         12.4062052          -14.3110091           -1.9048038
 Dipole Z            :          0.0000000            0.0000000            0.0000000
 Magnitude           :                                                    1.9048038

 ------------------------------------------------------------------------------------

*** tstop() called on cmpsrv002 at Thu Sep 26 15:26:00 2024
Module time:
	user time   =      34.71 seconds =       0.58 minutes
	system time =       6.23 seconds =       0.10 minutes
	total time  =         27 seconds =       0.45 minutes
Total time:
	user time   =      34.71 seconds =       0.58 minutes
	system time =       6.23 seconds =       0.10 minutes
	total time  =         27 seconds =       0.45 minutes

*** tstart() called on cmpsrv002
*** at Thu Sep 26 15:26:00 2024


  //>>>>>>>>>>>>>>>>>>>>>>>>>>>>>>>>>>>//
  //               DFMP2               //
  //<<<<<<<<<<<<<<<<<<<<<<<<<<<<<<<<<<<//

   => Loading Basis Set <=

    Name: (THIS_BASIS AUX)
    Role: RIFIT
    Keyword: DF_BASIS_MP2
    atoms 1, 4-6 entry H          line    30 file /home/vance/anaconda3/envs/p4env/share/psi4/basis/aug-cc-pvqz-ri.gbs 
    atoms 2      entry BR         line  1518 file /home/vance/anaconda3/envs/p4env/share/psi4/basis/aug-cc-pvqz-ri.gbs 
    atoms 3      entry N          line   258 file /home/vance/anaconda3/envs/p4env/share/psi4/basis/aug-cc-pvqz-ri.gbs 

	 --------------------------------------------------------
	                          DF-MP2                         
	      2nd-Order Density-Fitted Moller-Plesset Theory     
	              RMP2 Wavefunction,   4 Threads             
	                                                         
	        Rob Parrish, Justin Turney, Andy Simmonett,      
	           Ed Hohenstein, and C. David Sherrill          
	 --------------------------------------------------------

   => Auxiliary Basis Set <=

  Basis Set: (THIS_BASIS AUX)
    Blend: AUG-CC-PVQZ-RI
    Number of shells: 168
    Number of basis functions: 750
    Number of Cartesian functions: 1044
    Spherical Harmonics?: true
    Max angular momentum: 6

	 --------------------------------------------------------
	                 NBF =   357, NAUX =   750
	 --------------------------------------------------------
	   CLASS    FOCC     OCC    AOCC    AVIR     VIR    FVIR
	   PAIRS       0      23      23     334     334       0
	 --------------------------------------------------------

	 Will save fitting metric to file 97.

	-----------------------------------------------------------
	 ==================> DF-MP2 Energies <==================== 
	-----------------------------------------------------------
	 Reference Energy          =   -2629.2795678354059419 [Eh]
	 Singles Energy            =      -0.0000000000000000 [Eh]
	 Same-Spin Energy          =      -0.1826092396653421 [Eh]
	 Opposite-Spin Energy      =      -0.5139190482600112 [Eh]
	 Correlation Energy        =      -0.6965282879253534 [Eh]
	 Total Energy              =   -2629.9760961233314447 [Eh]
	-----------------------------------------------------------
	 ================> DF-SCS-MP2 Energies <================== 
	-----------------------------------------------------------
	 SCS Same-Spin Scale       =       0.3333333333333333 [-]
	 SCS Opposite-Spin Scale   =       1.2000000000000000 [-]
	 SCS Same-Spin Energy      =      -0.0608697465551140 [Eh]
	 SCS Opposite-Spin Energy  =      -0.6167028579120134 [Eh]
	 SCS Correlation Energy    =      -0.6775726044671274 [Eh]
	 SCS Total Energy          =   -2629.9571404398730010 [Eh]
	-----------------------------------------------------------


*** tstop() called on cmpsrv002 at Thu Sep 26 15:26:08 2024
Module time:
	user time   =      12.60 seconds =       0.21 minutes
	system time =       2.09 seconds =       0.03 minutes
	total time  =          8 seconds =       0.13 minutes
Total time:
	user time   =      47.32 seconds =       0.79 minutes
	system time =       8.33 seconds =       0.14 minutes
	total time  =         35 seconds =       0.58 minutes

  //>>>>>>>>>>>>>>>>>>>>>>>>>>>>>>>>>>>//
  //            Monomer A HF           //
  //<<<<<<<<<<<<<<<<<<<<<<<<<<<<<<<<<<<//

   => Libint2 <=

    Primary   basis highest AM E, G, H:  6, 6, 3
    Auxiliary basis highest AM E, G, H:  7, 7, 4
    Onebody   basis highest AM E, G, H:  -, -, -
    Solid Harmonics ordering:            Gaussian

*** tstart() called on cmpsrv002
*** at Thu Sep 26 15:26:08 2024

   => Loading Basis Set <=

    Name: THIS_BASIS
    Role: ORBITAL
    Keyword: BASIS
    atoms 1, 4-6 entry H          line    40 file /home/vance/anaconda3/envs/p4env/share/psi4/basis/aug-cc-pvqz.gbs 
    atoms 2      entry BR         line  5448 file /home/vance/anaconda3/envs/p4env/share/psi4/basis/aug-cc-pvqz.gbs 
    atoms 3      entry N          line   363 file /home/vance/anaconda3/envs/p4env/share/psi4/basis/aug-cc-pvqz.gbs 


         ---------------------------------------------------------
                                   SCF
               by Justin Turney, Rob Parrish, Andy Simmonett
                          and Daniel G. A. Smith
                              RHF Reference
                        4 Threads,   7629 MiB Core
         ---------------------------------------------------------

  ==> Geometry <==

    Molecular point group: c1
    Full point group: Cs

    Geometry (in Angstrom), charge = 0, multiplicity = 1:

       Center              X                  Y                   Z               Mass       
    ------------   -----------------  -----------------  -----------------  -----------------
         H            0.000022767418    -0.918024996978     0.000000000000     1.007825032230
         BR          -0.000007232582     0.596195003022     0.000000000000    78.918337600000
      Gh(N)           0.000032767418    -2.646444996978     0.000000000000    14.003074004430
      Gh(H)          -0.474347232582    -2.998914996978     0.821650000000     1.007825032230
      Gh(H)          -0.474347232582    -2.998914996978    -0.821650000000     1.007825032230
      Gh(H)           0.948782767418    -2.998914996978     0.000000000000     1.007825032230

  Running in c1 symmetry.

  Rotational constants: A =      6.19413  B =      0.10839  C =      0.10839 [cm^-1]
  Rotational constants: A = 185695.44926  B =   3249.48133  C =   3249.48095 [MHz]
  Nuclear repulsion =   12.231513498576831

  Charge       = 0
  Multiplicity = 1
  Electrons    = 36
  Nalpha       = 18
  Nbeta        = 18

  ==> Algorithm <==

  SCF Algorithm Type is DF.
  DIIS enabled.
  MOM disabled.
  Fractional occupation disabled.
  Guess Type is SAD.
  Energy threshold   = 1.00e-08
  Density threshold  = 1.00e-08
  Integral threshold = 1.00e-12

  ==> Primary Basis <==

  Basis Set: THIS_BASIS
    Blend: AUG-CC-PVQZ
    Number of shells: 101
    Number of basis functions: 357
    Number of Cartesian functions: 444
    Spherical Harmonics?: true
    Max angular momentum: 4

   => Loading Basis Set <=

    Name: (THIS_BASIS AUX)
    Role: JKFIT
    Keyword: DF_BASIS_SCF
    atoms 1, 4-6 entry H          line    70 file /home/vance/anaconda3/envs/p4env/share/psi4/basis/aug-cc-pvqz-jkfit.gbs 
    atoms 2      entry BR         line  1612 file /home/vance/anaconda3/envs/p4env/share/psi4/basis/aug-cc-pvqz-jkfit.gbs 
    atoms 3      entry N          line   248 file /home/vance/anaconda3/envs/p4env/share/psi4/basis/aug-cc-pvqz-jkfit.gbs 

  ==> Integral Setup <==

  ==> DiskDFJK: Density-Fitted J/K Matrices <==

    J tasked:                  Yes
    K tasked:                  Yes
    wK tasked:                  No
    OpenMP threads:              4
    Integrals threads:           4
    Memory [MiB]:             5722
    Algorithm:                Core
    Integral Cache:           LOAD
    Schwarz Cutoff:          1E-12
    Fitting Condition:       1E-10

   => Auxiliary Basis Set <=

  Basis Set: (THIS_BASIS AUX)
    Blend: AUG-CC-PVQZ-JKFIT
    Number of shells: 166
    Number of basis functions: 716
    Number of Cartesian functions: 973
    Spherical Harmonics?: true
    Max angular momentum: 5

  Minimum eigenvalue in the overlap matrix is 1.1510460948E-05.
  Reciprocal condition number of the overlap matrix is 9.6311367710E-07.
    Using symmetric orthogonalization.

  ==> Pre-Iterations <==

  SCF Guess: Superposition of Atomic Densities via on-the-fly atomic UHF (no occupation information).

   -------------------------
    Irrep   Nso     Nmo    
   -------------------------
     A        357     357 
   -------------------------
    Total     357     357
   -------------------------

  ==> Iterations <==

                           Total Energy        Delta E     RMS |[F,P]|

   @DF-RHF iter SAD: -2571.14384254629022   -2.57114e+03   0.00000e+00 
   @DF-RHF iter   1: -2572.80817857219381   -1.66434e+00   3.47998e-03 DIIS/ADIIS
   @DF-RHF iter   2: -2572.98079897691150   -1.72620e-01   1.96705e-03 DIIS/ADIIS
   @DF-RHF iter   3: -2573.04615719939829   -6.53582e-02   5.46873e-05 DIIS
   @DF-RHF iter   4: -2573.04662378087141   -4.66581e-04   1.88086e-05 DIIS
   @DF-RHF iter   5: -2573.04669716781564   -7.33869e-05   4.77290e-06 DIIS
   @DF-RHF iter   6: -2573.04670148050263   -4.31269e-06   8.36584e-07 DIIS
   @DF-RHF iter   7: -2573.04670156497923   -8.44766e-08   2.06690e-07 DIIS
   @DF-RHF iter   8: -2573.04670157202690   -7.04767e-09   2.86786e-08 DIIS
   @DF-RHF iter   9: -2573.04670157215969   -1.32786e-10   4.43306e-09 DIIS
  Energy and wave function converged.


  ==> Post-Iterations <==

    Orbital Energies [Eh]
    ---------------------

    Doubly Occupied:                                                      

       1A   -490.039742     2A    -65.179487     3A    -58.534967  
       4A    -58.533512     5A    -58.533512     6A     -9.851932  
       7A     -7.463421     8A     -7.456726     9A     -7.456726  
      10A     -3.207250    11A     -3.203531    12A     -3.203531  
      13A     -3.194911    14A     -3.194911    15A     -1.020563  
      16A     -0.564752    17A     -0.433628    18A     -0.433628  

    Virtual:                                                              

      19A      0.018790    20A      0.041997    21A      0.042527  
      22A      0.042527    23A      0.076504    24A      0.081546  
      25A      0.088806    26A      0.088806    27A      0.122058  
      28A      0.122058    29A      0.125661    30A      0.149499  
      31A      0.171804    32A      0.180433    33A      0.180433  
      34A      0.204535    35A      0.204535    36A      0.234815  
      37A      0.234815    38A      0.258987    39A      0.276261  
      40A      0.277889    41A      0.277890    42A      0.284673  
      43A      0.295020    44A      0.295020    45A      0.295461  
      46A      0.340330    47A      0.340331    48A      0.345189  
      49A      0.377409    50A      0.395885    51A      0.395887  
      52A      0.405811    53A      0.407181    54A      0.407181  
      55A      0.453662    56A      0.453663    57A      0.458302  
      58A      0.536172    59A      0.545369    60A      0.545371  
      61A      0.569413    62A      0.569414    63A      0.574475  
      64A      0.589035    65A      0.589036    66A      0.616421  
      67A      0.616424    68A      0.636907    69A      0.637898  
      70A      0.637898    71A      0.648891    72A      0.660196  
      73A      0.692788    74A      0.692788    75A      0.712828  
      76A      0.728673    77A      0.757006    78A      0.757232  
      79A      0.770068    80A      0.770069    81A      0.836447  
      82A      0.836447    83A      0.843264    84A      0.865946  
      85A      0.865947    86A      0.872885    87A      0.872888  
      88A      0.887975    89A      0.920269    90A      0.952152  
      91A      0.956477    92A      0.956478    93A      0.978534  
      94A      0.978534    95A      1.055707    96A      1.055708  
      97A      1.059993    98A      1.083004    99A      1.104545  
     100A      1.104546   101A      1.128404   102A      1.128404  
     103A      1.142601   104A      1.243954   105A      1.252841  
     106A      1.252842   107A      1.274983   108A      1.274984  
     109A      1.371289   110A      1.371289   111A      1.378619  
     112A      1.384264   113A      1.413984   114A      1.413985  
     115A      1.452807   116A      1.452808   117A      1.468911  
     118A      1.483055   119A      1.500870   120A      1.511171  
     121A      1.514889   122A      1.514889   123A      1.542976  
     124A      1.542977   125A      1.569531   126A      1.603108  
     127A      1.605731   128A      1.605734   129A      1.608310  
     130A      1.619252   131A      1.644823   132A      1.644825  
     133A      1.658180   134A      1.658180   135A      1.740738  
     136A      1.768830   137A      1.768831   138A      1.827896  
     139A      1.837649   140A      1.846864   141A      1.846864  
     142A      1.861831   143A      1.861834   144A      1.882459  
     145A      1.909635   146A      1.909637   147A      1.945107  
     148A      1.974616   149A      1.974621   150A      2.028219  
     151A      2.028223   152A      2.031865   153A      2.036378  
     154A      2.069910   155A      2.078553   156A      2.078555  
     157A      2.125708   158A      2.125710   159A      2.153532  
     160A      2.160761   161A      2.180183   162A      2.180184  
     163A      2.202190   164A      2.214408   165A      2.214410  
     166A      2.248523   167A      2.329498   168A      2.347348  
     169A      2.347350   170A      2.391242   171A      2.391243  
     172A      2.425774   173A      2.478398   174A      2.557837  
     175A      2.557841   176A      2.609448   177A      2.609451  
     178A      2.682968   179A      2.682971   180A      2.692745  
     181A      2.772291   182A      2.833677   183A      2.851129  
     184A      2.851132   185A      3.073884   186A      3.073886  
     187A      3.085330   188A      3.102983   189A      3.102984  
     190A      3.200239   191A      3.225432   192A      3.239964  
     193A      3.239965   194A      3.286679   195A      3.286680  
     196A      3.289145   197A      3.311698   198A      3.355514  
     199A      3.408057   200A      3.409763   201A      3.413853  
     202A      3.413854   203A      3.424745   204A      3.424746  
     205A      3.462495   206A      3.473463   207A      3.473464  
     208A      3.513519   209A      3.513520   210A      3.616326  
     211A      3.616332   212A      3.665978   213A      3.666128  
     214A      3.666128   215A      3.668380   216A      3.707378  
     217A      3.716996   218A      3.716997   219A      3.801650  
     220A      3.806577   221A      3.806577   222A      3.814197  
     223A      3.885068   224A      3.885068   225A      3.905768  
     226A      3.905769   227A      4.023978   228A      4.023978  
     229A      4.064809   230A      4.091089   231A      4.091091  
     232A      4.160524   233A      4.188772   234A      4.188775  
     235A      4.262437   236A      4.277266   237A      4.277268  
     238A      4.373358   239A      4.404790   240A      4.404793  
     241A      4.458022   242A      4.524711   243A      4.557968  
     244A      4.557974   245A      4.593606   246A      4.612224  
     247A      4.612233   248A      4.828449   249A      4.828454  
     250A      5.020516   251A      5.175040   252A      5.175046  
     253A      5.278697   254A      5.434187   255A      5.506351  
     256A      5.506361   257A      5.683042   258A      5.800390  
     259A      5.800398   260A      5.855811   261A      5.956195  
     262A      5.956204   263A      6.135241   264A      6.479721  
     265A      6.573810   266A      6.573827   267A      6.656768  
     268A      6.668453   269A      7.029481   270A      7.029482  
     271A      7.106764   272A      7.124486   273A      7.124489  
     274A      7.273172   275A      7.273181   276A      7.431747  
     277A      7.431749   278A      7.568704   279A      7.774510  
     280A      7.780463   281A      8.188295   282A      8.237690  
     283A      8.237692   284A      8.280935   285A      8.280940  
     286A      8.288349   287A      8.300419   288A      8.300428  
     289A      8.452359   290A      8.500545   291A      8.500547  
     292A      8.596644   293A      8.596645   294A      8.702359  
     295A      8.702363   296A      8.765779   297A      8.765781  
     298A      8.881562   299A      8.966915   300A      9.112765  
     301A      9.112767   302A      9.186408   303A      9.243420  
     304A      9.243431   305A      9.280975   306A      9.326204  
     307A      9.326208   308A      9.512815   309A      9.517371  
     310A      9.517378   311A      9.586570   312A      9.598788  
     313A      9.685047   314A      9.685053   315A      9.826096  
     316A     10.003135   317A     10.103135   318A     10.103142  
     319A     10.199912   320A     10.199927   321A     10.333997  
     322A     10.464165   323A     10.569268   324A     10.569282  
     325A     10.752167   326A     10.770766   327A     10.770772  
     328A     10.884255   329A     10.884265   330A     10.917592  
     331A     11.392873   332A     11.392889   333A     11.528597  
     334A     12.073405   335A     12.073417   336A     12.138169  
     337A     12.493127   338A     12.560154   339A     12.560191  
     340A     13.171220   341A     13.171239   342A     13.384462  
     343A     14.024000   344A     14.267496   345A     14.494361  
     346A     14.494410   347A     14.722435   348A     14.722440  
     349A     15.061168   350A     16.064374   351A     16.064396  
     352A     16.463509   353A     18.451051   354A     20.114614  
     355A     21.886469   356A     21.886552   357A     96.568853  

    Final Occupation by Irrep:
              A 
    DOCC [    18 ]
    NA   [    18 ]
    NB   [    18 ]

  @DF-RHF Final Energy: -2573.04670157215969

   => Energetics <=

    Nuclear Repulsion Energy =             12.2315134985768310
    One-Electron Energy =               -3607.5429786127215266
    Two-Electron Energy =                1022.2647635419848484
    Total Energy =                      -2573.0467015721596908

Computation Completed


Properties will be evaluated at   0.000000,   0.000000,   0.000000 [a0]

Properties computed using the SCF density matrix


 Multipole Moments:

 ------------------------------------------------------------------------------------
     Multipole            Electronic (a.u.)      Nuclear  (a.u.)        Total (a.u.)
 ------------------------------------------------------------------------------------

 L = 1.  Multiply by 2.5417464519 to convert [e a0] to [Debye]
 Dipole X            :          0.0004432           -0.0004353            0.0000079
 Dipole Y            :        -38.0960006           37.6977687           -0.3982319
 Dipole Z            :          0.0000000            0.0000000            0.0000000
 Magnitude           :                                                    0.3982319

 ------------------------------------------------------------------------------------

*** tstop() called on cmpsrv002 at Thu Sep 26 15:26:25 2024
Module time:
	user time   =      25.77 seconds =       0.43 minutes
	system time =       4.06 seconds =       0.07 minutes
	total time  =         17 seconds =       0.28 minutes
Total time:
	user time   =      73.13 seconds =       1.22 minutes
	system time =      12.40 seconds =       0.21 minutes
	total time  =         52 seconds =       0.87 minutes

*** tstart() called on cmpsrv002
*** at Thu Sep 26 15:26:25 2024


  //>>>>>>>>>>>>>>>>>>>>>>>>>>>>>>>>>>>//
  //               DFMP2               //
  //<<<<<<<<<<<<<<<<<<<<<<<<<<<<<<<<<<<//

   => Loading Basis Set <=

    Name: (THIS_BASIS AUX)
    Role: RIFIT
    Keyword: DF_BASIS_MP2
    atoms 1, 4-6 entry H          line    30 file /home/vance/anaconda3/envs/p4env/share/psi4/basis/aug-cc-pvqz-ri.gbs 
    atoms 2      entry BR         line  1518 file /home/vance/anaconda3/envs/p4env/share/psi4/basis/aug-cc-pvqz-ri.gbs 
    atoms 3      entry N          line   258 file /home/vance/anaconda3/envs/p4env/share/psi4/basis/aug-cc-pvqz-ri.gbs 

	 --------------------------------------------------------
	                          DF-MP2                         
	      2nd-Order Density-Fitted Moller-Plesset Theory     
	              RMP2 Wavefunction,   4 Threads             
	                                                         
	        Rob Parrish, Justin Turney, Andy Simmonett,      
	           Ed Hohenstein, and C. David Sherrill          
	 --------------------------------------------------------

   => Auxiliary Basis Set <=

  Basis Set: (THIS_BASIS AUX)
    Blend: AUG-CC-PVQZ-RI
    Number of shells: 168
    Number of basis functions: 750
    Number of Cartesian functions: 1044
    Spherical Harmonics?: true
    Max angular momentum: 6

	 --------------------------------------------------------
	                 NBF =   357, NAUX =   750
	 --------------------------------------------------------
	   CLASS    FOCC     OCC    AOCC    AVIR     VIR    FVIR
	   PAIRS       0      18      18     339     339       0
	 --------------------------------------------------------

	 Will attempt to load fitting metric from file 97.

	-----------------------------------------------------------
	 ==================> DF-MP2 Energies <==================== 
	-----------------------------------------------------------
	 Reference Energy          =   -2573.0467015721596908 [Eh]
	 Singles Energy            =      -0.0000000000000000 [Eh]
	 Same-Spin Energy          =      -0.1180269971587614 [Eh]
	 Opposite-Spin Energy      =      -0.2856261611370969 [Eh]
	 Correlation Energy        =      -0.4036531582958583 [Eh]
	 Total Energy              =   -2573.4503547304557287 [Eh]
	-----------------------------------------------------------
	 ================> DF-SCS-MP2 Energies <================== 
	-----------------------------------------------------------
	 SCS Same-Spin Scale       =       0.3333333333333333 [-]
	 SCS Opposite-Spin Scale   =       1.2000000000000000 [-]
	 SCS Same-Spin Energy      =      -0.0393423323862538 [Eh]
	 SCS Opposite-Spin Energy  =      -0.3427513933645163 [Eh]
	 SCS Correlation Energy    =      -0.3820937257507701 [Eh]
	 SCS Total Energy          =   -2573.4287952979102556 [Eh]
	-----------------------------------------------------------


*** tstop() called on cmpsrv002 at Thu Sep 26 15:26:33 2024
Module time:
	user time   =      10.36 seconds =       0.17 minutes
	system time =       1.65 seconds =       0.03 minutes
	total time  =          8 seconds =       0.13 minutes
Total time:
	user time   =      83.49 seconds =       1.39 minutes
	system time =      14.05 seconds =       0.23 minutes
	total time  =         60 seconds =       1.00 minutes

  //>>>>>>>>>>>>>>>>>>>>>>>>>>>>>>>>>>>//
  //            Monomer B HF           //
  //<<<<<<<<<<<<<<<<<<<<<<<<<<<<<<<<<<<//

   => Libint2 <=

    Primary   basis highest AM E, G, H:  6, 6, 3
    Auxiliary basis highest AM E, G, H:  7, 7, 4
    Onebody   basis highest AM E, G, H:  -, -, -
    Solid Harmonics ordering:            Gaussian

*** tstart() called on cmpsrv002
*** at Thu Sep 26 15:26:33 2024

   => Loading Basis Set <=

    Name: THIS_BASIS
    Role: ORBITAL
    Keyword: BASIS
    atoms 1, 4-6 entry H          line    40 file /home/vance/anaconda3/envs/p4env/share/psi4/basis/aug-cc-pvqz.gbs 
    atoms 2      entry BR         line  5448 file /home/vance/anaconda3/envs/p4env/share/psi4/basis/aug-cc-pvqz.gbs 
    atoms 3      entry N          line   363 file /home/vance/anaconda3/envs/p4env/share/psi4/basis/aug-cc-pvqz.gbs 


         ---------------------------------------------------------
                                   SCF
               by Justin Turney, Rob Parrish, Andy Simmonett
                          and Daniel G. A. Smith
                              RHF Reference
                        4 Threads,   7629 MiB Core
         ---------------------------------------------------------

  ==> Geometry <==

    Molecular point group: c1
    Full point group: Cs

    Geometry (in Angstrom), charge = 0, multiplicity = 1:

       Center              X                  Y                   Z               Mass       
    ------------   -----------------  -----------------  -----------------  -----------------
      Gh(H)           0.000022767418    -0.918024996978     0.000000000000     1.007825032230
      Gh(BR)         -0.000007232582     0.596195003022     0.000000000000    78.918337600000
         N            0.000032767418    -2.646444996978     0.000000000000    14.003074004430
         H           -0.474347232582    -2.998914996978     0.821650000000     1.007825032230
         H           -0.474347232582    -2.998914996978    -0.821650000000     1.007825032230
         H            0.948782767418    -2.998914996978     0.000000000000     1.007825032230

  Running in c1 symmetry.

  Rotational constants: A =      6.19413  B =      0.10839  C =      0.10839 [cm^-1]
  Rotational constants: A = 185695.44926  B =   3249.48133  C =   3249.48095 [MHz]
  Nuclear repulsion =   11.945783476959878

  Charge       = 0
  Multiplicity = 1
  Electrons    = 10
  Nalpha       = 5
  Nbeta        = 5

  ==> Algorithm <==

  SCF Algorithm Type is DF.
  DIIS enabled.
  MOM disabled.
  Fractional occupation disabled.
  Guess Type is SAD.
  Energy threshold   = 1.00e-08
  Density threshold  = 1.00e-08
  Integral threshold = 1.00e-12

  ==> Primary Basis <==

  Basis Set: THIS_BASIS
    Blend: AUG-CC-PVQZ
    Number of shells: 101
    Number of basis functions: 357
    Number of Cartesian functions: 444
    Spherical Harmonics?: true
    Max angular momentum: 4

   => Loading Basis Set <=

    Name: (THIS_BASIS AUX)
    Role: JKFIT
    Keyword: DF_BASIS_SCF
    atoms 1, 4-6 entry H          line    70 file /home/vance/anaconda3/envs/p4env/share/psi4/basis/aug-cc-pvqz-jkfit.gbs 
    atoms 2      entry BR         line  1612 file /home/vance/anaconda3/envs/p4env/share/psi4/basis/aug-cc-pvqz-jkfit.gbs 
    atoms 3      entry N          line   248 file /home/vance/anaconda3/envs/p4env/share/psi4/basis/aug-cc-pvqz-jkfit.gbs 

  ==> Integral Setup <==

  ==> DiskDFJK: Density-Fitted J/K Matrices <==

    J tasked:                  Yes
    K tasked:                  Yes
    wK tasked:                  No
    OpenMP threads:              4
    Integrals threads:           4
    Memory [MiB]:             5722
    Algorithm:                Core
    Integral Cache:           LOAD
    Schwarz Cutoff:          1E-12
    Fitting Condition:       1E-10

   => Auxiliary Basis Set <=

  Basis Set: (THIS_BASIS AUX)
    Blend: AUG-CC-PVQZ-JKFIT
    Number of shells: 166
    Number of basis functions: 716
    Number of Cartesian functions: 973
    Spherical Harmonics?: true
    Max angular momentum: 5

  Minimum eigenvalue in the overlap matrix is 1.1510460948E-05.
  Reciprocal condition number of the overlap matrix is 9.6311367710E-07.
    Using symmetric orthogonalization.

  ==> Pre-Iterations <==

  SCF Guess: Superposition of Atomic Densities via on-the-fly atomic UHF (no occupation information).

   -------------------------
    Irrep   Nso     Nmo    
   -------------------------
     A        357     357 
   -------------------------
    Total     357     357
   -------------------------

  ==> Iterations <==

                           Total Energy        Delta E     RMS |[F,P]|

   @DF-RHF iter SAD:   -55.64105543792111   -5.56411e+01   0.00000e+00 
   @DF-RHF iter   1:   -56.12631879445256   -4.85263e-01   1.30906e-03 DIIS/ADIIS
   @DF-RHF iter   2:   -56.19507268622471   -6.87539e-02   7.58677e-04 DIIS/ADIIS
   @DF-RHF iter   3:   -56.22329330386750   -2.82206e-02   6.88919e-05 DIIS
   @DF-RHF iter   4:   -56.22392885950243   -6.35556e-04   1.28526e-05 DIIS
   @DF-RHF iter   5:   -56.22394996831892   -2.11088e-05   2.38283e-06 DIIS
   @DF-RHF iter   6:   -56.22395120468423   -1.23637e-06   6.32087e-07 DIIS
   @DF-RHF iter   7:   -56.22395129181998   -8.71357e-08   1.40175e-07 DIIS
   @DF-RHF iter   8:   -56.22395129634663   -4.52665e-09   2.09415e-08 DIIS
   @DF-RHF iter   9:   -56.22395129644750   -1.00876e-10   5.65532e-09 DIIS
  Energy and wave function converged.


  ==> Post-Iterations <==

    Orbital Energies [Eh]
    ---------------------

    Doubly Occupied:                                                      

       1A    -15.538874     2A     -1.139034     3A     -0.631521  
       4A     -0.631519     5A     -0.424225  

    Virtual:                                                              

       6A      0.024856     7A      0.040110     8A      0.043076  
       9A      0.043076    10A      0.081012    11A      0.081012  
      12A      0.081561    13A      0.111661    14A      0.135177  
      15A      0.136943    16A      0.136943    17A      0.146691  
      18A      0.180479    19A      0.180479    20A      0.206447  
      21A      0.206447    22A      0.245984    23A      0.261834  
      24A      0.261834    25A      0.262633    26A      0.266263  
      27A      0.266263    28A      0.282974    29A      0.284433  
      30A      0.306603    31A      0.306603    32A      0.331732  
      33A      0.338418    34A      0.338418    35A      0.347695  
      36A      0.369646    37A      0.386631    38A      0.386633  
      39A      0.410668    40A      0.410669    41A      0.455133  
      42A      0.455838    43A      0.455839    44A      0.515841  
      45A      0.528412    46A      0.528416    47A      0.557028  
      48A      0.557032    49A      0.563980    50A      0.576405  
      51A      0.654373    52A      0.680639    53A      0.693144  
      54A      0.693145    55A      0.709587    56A      0.711708  
      57A      0.719788    58A      0.719788    59A      0.732866  
      60A      0.732867    61A      0.734086    62A      0.761963  
      63A      0.773366    64A      0.773366    65A      0.778271  
      66A      0.778271    67A      0.784035    68A      0.793006  
      69A      0.793008    70A      0.799547    71A      0.835704  
      72A      0.835706    73A      0.881319    74A      0.883763  
      75A      0.883764    76A      0.896680    77A      0.896683  
      78A      0.934979    79A      0.934980    80A      0.955538  
      81A      0.968733    82A      0.968733    83A      0.989363  
      84A      1.027295    85A      1.058067    86A      1.058069  
      87A      1.070095    88A      1.070097    89A      1.107181  
      90A      1.231031    91A      1.305388    92A      1.307277  
      93A      1.307278    94A      1.323945    95A      1.323946  
      96A      1.370702    97A      1.394172    98A      1.444841  
      99A      1.444842   100A      1.465614   101A      1.481346  
     102A      1.505714   103A      1.539585   104A      1.539588  
     105A      1.574100   106A      1.574102   107A      1.582615  
     108A      1.590290   109A      1.590290   110A      1.595927  
     111A      1.598048   112A      1.598048   113A      1.609927  
     114A      1.684300   115A      1.684300   116A      1.703703  
     117A      1.708306   118A      1.708308   119A      1.795039  
     120A      1.795041   121A      1.820834   122A      1.824372  
     123A      1.854926   124A      1.854927   125A      1.858027  
     126A      1.901081   127A      1.901085   128A      1.902726  
     129A      1.913760   130A      1.924039   131A      1.924039  
     132A      1.952910   133A      1.952912   134A      1.992535  
     135A      1.992535   136A      2.001527   137A      2.014872  
     138A      2.014872   139A      2.026721   140A      2.037846  
     141A      2.048907   142A      2.048907   143A      2.078176  
     144A      2.088153   145A      2.088153   146A      2.141230  
     147A      2.141235   148A      2.179762   149A      2.190702  
     150A      2.198242   151A      2.198242   152A      2.222771  
     153A      2.336244   154A      2.367578   155A      2.367579  
     156A      2.373890   157A      2.450288   158A      2.450294  
     159A      2.473590   160A      2.491194   161A      2.557717  
     162A      2.560689   163A      2.560690   164A      2.621540  
     165A      2.621541   166A      2.704285   167A      2.704291  
     168A      2.724210   169A      2.833600   170A      2.833602  
     171A      2.932869   172A      2.938709   173A      2.954453  
     174A      2.954456   175A      3.029561   176A      3.044973  
     177A      3.044978   178A      3.052025   179A      3.052028  
     180A      3.131531   181A      3.171539   182A      3.181716  
     183A      3.181722   184A      3.196375   185A      3.241013  
     186A      3.250548   187A      3.250550   188A      3.346631  
     189A      3.346635   190A      3.409857   191A      3.409863  
     192A      3.552405   193A      3.552410   194A      3.569124  
     195A      3.661618   196A      3.661624   197A      3.663846  
     198A      3.698506   199A      3.853214   200A      3.853218  
     201A      3.866198   202A      4.041688   203A      4.041689  
     204A      4.059123   205A      4.140697   206A      4.140700  
     207A      4.147703   208A      4.227752   209A      4.258993  
     210A      4.259001   211A      4.331852   212A      4.331853  
     213A      4.338300   214A      4.338300   215A      4.340236  
     216A      4.361937   217A      4.365894   218A      4.479577  
     219A      4.553500   220A      4.553506   221A      4.574252  
     222A      4.574257   223A      4.659470   224A      4.663031  
     225A      4.663038   226A      4.800950   227A      4.827506  
     228A      4.827508   229A      4.873178   230A      4.874936  
     231A      4.924047   232A      4.924047   233A      4.931925  
     234A      4.931926   235A      4.979839   236A      5.021103  
     237A      5.021110   238A      5.138216   239A      5.200283  
     240A      5.200285   241A      5.243333   242A      5.243338  
     243A      5.314601   244A      5.314602   245A      5.394058  
     246A      5.446452   247A      5.446454   248A      5.485775  
     249A      5.646700   250A      5.843120   251A      5.949814  
     252A      5.949815   253A      6.345778   254A      6.797742  
     255A      6.869474   256A      6.962065   257A      6.962066  
     258A      7.003340   259A      7.013723   260A      7.013733  
     261A      7.023320   262A      7.373193   263A      7.401164  
     264A      7.423367   265A      7.423367   266A      7.450393  
     267A      7.450400   268A      7.569118   269A      7.569127  
     270A      7.697478   271A      7.712754   272A      7.856456  
     273A      7.856456   274A      7.944310   275A      7.944321  
     276A      8.091140   277A      8.160164   278A      8.160172  
     279A      8.191045   280A      8.225650   281A      8.225650  
     282A      8.366566   283A      8.462087   284A      8.462103  
     285A      8.616875   286A      8.675225   287A      8.675226  
     288A      8.791175   289A      8.872221   290A      8.872227  
     291A      8.925075   292A      8.925077   293A      8.980450  
     294A      8.991084   295A      9.059393   296A      9.101865  
     297A      9.134889   298A      9.134895   299A      9.246472  
     300A      9.246475   301A      9.373310   302A      9.373320  
     303A      9.473431   304A      9.473431   305A      9.609721  
     306A      9.692225   307A      9.692232   308A      9.746656  
     309A      9.842376   310A      9.842376   311A      9.887128  
     312A      9.983996   313A      9.984003   314A     10.032518  
     315A     10.032522   316A     10.118143   317A     10.181004  
     318A     10.181011   319A     10.476901   320A     10.537308  
     321A     10.537313   322A     10.617016   323A     10.617017  
     324A     10.769385   325A     10.887709   326A     11.059827  
     327A     11.059838   328A     11.176995   329A     11.606987  
     330A     11.807910   331A     12.071597   332A     12.223991  
     333A     12.224027   334A     12.378002   335A     12.420078  
     336A     12.420131   337A     13.076027   338A     13.181736  
     339A     13.181763   340A     14.637458   341A     14.637460  
     342A     14.883121   343A     15.060534   344A     15.120984  
     345A     15.121045   346A     20.920985   347A     30.086927  
     348A     30.086927   349A     30.611827   350A     30.611830  
     351A     31.076090   352A     36.932217   353A     51.937881  
     354A    139.406522   355A    139.406524   356A    139.594003  
     357A    729.023058  

    Final Occupation by Irrep:
              A 
    DOCC [     5 ]
    NA   [     5 ]
    NB   [     5 ]

  @DF-RHF Final Energy:   -56.22395129644750

   => Energetics <=

    Nuclear Repulsion Energy =             11.9457834769598783
    One-Electron Energy =                 -99.6091200232385461
    Two-Electron Energy =                  31.4393852498311688
    Total Energy =                        -56.2239512964475026

Computation Completed


Properties will be evaluated at   0.000000,   0.000000,   0.000000 [a0]

Properties computed using the SCF density matrix


 Multipole Moments:

 ------------------------------------------------------------------------------------
     Multipole            Electronic (a.u.)      Nuclear  (a.u.)        Total (a.u.)
 ------------------------------------------------------------------------------------

 L = 1.  Multiply by 2.5417464519 to convert [e a0] to [Debye]
 Dipole X            :         -0.0006022            0.0006003           -0.0000018
 Dipole Y            :         51.4112456          -52.0087778           -0.5975322
 Dipole Z            :          0.0000000            0.0000000            0.0000000
 Magnitude           :                                                    0.5975322

 ------------------------------------------------------------------------------------

*** tstop() called on cmpsrv002 at Thu Sep 26 15:26:47 2024
Module time:
	user time   =      19.34 seconds =       0.32 minutes
	system time =       1.77 seconds =       0.03 minutes
	total time  =         14 seconds =       0.23 minutes
Total time:
	user time   =     102.84 seconds =       1.71 minutes
	system time =      15.82 seconds =       0.26 minutes
	total time  =         74 seconds =       1.23 minutes

*** tstart() called on cmpsrv002
*** at Thu Sep 26 15:26:47 2024


  //>>>>>>>>>>>>>>>>>>>>>>>>>>>>>>>>>>>//
  //               DFMP2               //
  //<<<<<<<<<<<<<<<<<<<<<<<<<<<<<<<<<<<//

   => Loading Basis Set <=

    Name: (THIS_BASIS AUX)
    Role: RIFIT
    Keyword: DF_BASIS_MP2
    atoms 1, 4-6 entry H          line    30 file /home/vance/anaconda3/envs/p4env/share/psi4/basis/aug-cc-pvqz-ri.gbs 
    atoms 2      entry BR         line  1518 file /home/vance/anaconda3/envs/p4env/share/psi4/basis/aug-cc-pvqz-ri.gbs 
    atoms 3      entry N          line   258 file /home/vance/anaconda3/envs/p4env/share/psi4/basis/aug-cc-pvqz-ri.gbs 

	 --------------------------------------------------------
	                          DF-MP2                         
	      2nd-Order Density-Fitted Moller-Plesset Theory     
	              RMP2 Wavefunction,   4 Threads             
	                                                         
	        Rob Parrish, Justin Turney, Andy Simmonett,      
	           Ed Hohenstein, and C. David Sherrill          
	 --------------------------------------------------------

   => Auxiliary Basis Set <=

  Basis Set: (THIS_BASIS AUX)
    Blend: AUG-CC-PVQZ-RI
    Number of shells: 168
    Number of basis functions: 750
    Number of Cartesian functions: 1044
    Spherical Harmonics?: true
    Max angular momentum: 6

	 --------------------------------------------------------
	                 NBF =   357, NAUX =   750
	 --------------------------------------------------------
	   CLASS    FOCC     OCC    AOCC    AVIR     VIR    FVIR
	   PAIRS       0       5       5     352     352       0
	 --------------------------------------------------------

	 Will attempt to load fitting metric from file 97.

	-----------------------------------------------------------
	 ==================> DF-MP2 Energies <==================== 
	-----------------------------------------------------------
	 Reference Energy          =     -56.2239512964475026 [Eh]
	 Singles Energy            =      -0.0000000000000000 [Eh]
	 Same-Spin Energy          =      -0.0594419081292334 [Eh]
	 Opposite-Spin Energy      =      -0.2251258186435603 [Eh]
	 Correlation Energy        =      -0.2845677267727936 [Eh]
	 Total Energy              =     -56.5085190232202947 [Eh]
	-----------------------------------------------------------
	 ================> DF-SCS-MP2 Energies <================== 
	-----------------------------------------------------------
	 SCS Same-Spin Scale       =       0.3333333333333333 [-]
	 SCS Opposite-Spin Scale   =       1.2000000000000000 [-]
	 SCS Same-Spin Energy      =      -0.0198139693764111 [Eh]
	 SCS Opposite-Spin Energy  =      -0.2701509823722723 [Eh]
	 SCS Correlation Energy    =      -0.2899649517486834 [Eh]
	 SCS Total Energy          =     -56.5139162481961890 [Eh]
	-----------------------------------------------------------


*** tstop() called on cmpsrv002 at Thu Sep 26 15:26:57 2024
Module time:
	user time   =       8.05 seconds =       0.13 minutes
	system time =       1.03 seconds =       0.02 minutes
	total time  =         10 seconds =       0.17 minutes
Total time:
	user time   =     110.90 seconds =       1.85 minutes
	system time =      16.85 seconds =       0.28 minutes
	total time  =         84 seconds =       1.40 minutes
  Constructing Basis Sets for SAPT...

   => Loading Basis Set <=

    Name: (THIS_BASIS AUX)
    Role: RIFIT
    Keyword: DF_BASIS_SAPT
    atoms 1, 4-6 entry H          line    30 file /home/vance/anaconda3/envs/p4env/share/psi4/basis/aug-cc-pvqz-ri.gbs 
    atoms 2      entry BR         line  1518 file /home/vance/anaconda3/envs/p4env/share/psi4/basis/aug-cc-pvqz-ri.gbs 
    atoms 3      entry N          line   258 file /home/vance/anaconda3/envs/p4env/share/psi4/basis/aug-cc-pvqz-ri.gbs 

   => Loading Basis Set <=

    Name: (THIS_BASIS AUX)
    Role: JKFIT
    Keyword: DF_BASIS_ELST
    atoms 1, 4-6 entry H          line    70 file /home/vance/anaconda3/envs/p4env/share/psi4/basis/aug-cc-pvqz-jkfit.gbs 
    atoms 2      entry BR         line  1612 file /home/vance/anaconda3/envs/p4env/share/psi4/basis/aug-cc-pvqz-jkfit.gbs 
    atoms 3      entry N          line   248 file /home/vance/anaconda3/envs/p4env/share/psi4/basis/aug-cc-pvqz-jkfit.gbs 


  //>>>>>>>>>>>>>>>>>>>>>>>>>>>>>>>>>>>//
  //             SAPT2+DMP2            //
  //<<<<<<<<<<<<<<<<<<<<<<<<<<<<<<<<<<<//


*** tstart() called on cmpsrv002
*** at Thu Sep 26 15:26:57 2024

        SAPT2+  
    Ed Hohenstein
     6 June 2009

      Orbital Information
  --------------------------
    NSO        =       357
    NMO        =       357
    NRI        =       750
    NOCC A     =        18
    NOCC B     =         5
    FOCC A     =         0
    FOCC B     =         0
    NVIR A     =       339
    NVIR B     =       352

    Estimated memory usage: 1706.9 MB

    Natural Orbital Cutoff:   1.000E-06
    Disp(T3) Truncation:            Yes
    CCD (vv|vv) Truncation:         Yes
    MBPT T2 Truncation:             Yes

    Monomer A: 227 virtual orbitals dropped
    Monomer B: 183 virtual orbitals dropped

    Elst10,r            =    -0.034058184639 [Eh]
    Exch10 (S^2)        =     0.046845509536 [Eh]
    Exch10              =     0.048675153434 [Eh]
    Ind20,r (A<-B)      =    -0.008727572997 [Eh]
    Ind20,r (B<-A)      =    -0.017649677479 [Eh]
    Ind20,r             =    -0.026377250476 [Eh]
    Exch-Ind20,r (A<-B) =     0.005968962421 [Eh]
    Exch-Ind20,r (B<-A) =     0.010246645120 [Eh]
    Exch-Ind20,r        =     0.016215607541 [Eh]
    Disp20              =    -0.013892565360 [Eh]
    Disp20 (NO)         =    -0.012076590292 [Eh]
    Exch-Disp20         =     0.003030452248 [Eh]
    Elst12,r            =     0.000630206683 [Eh]
    Exch11              =     0.002533300220 [Eh]
    Exch12              =    -0.000687978979 [Eh]
    Ind22               =    -0.001214457978 [Eh]
    Disp21              =     0.001130167159 [Eh]
    Disp22 (SDQ)        =     0.000711816737 [Eh]

    (i =   1 of   5)         33 seconds
    (i =   2 of   5)         59 seconds
    (i =   3 of   5)         80 seconds
    (i =   4 of   5)        100 seconds
    (i =   5 of   5)        119 seconds

    Disp220 (T)         =    -0.000898000382 [Eh]

    (i =   1 of  18)          6 seconds
    (i =   2 of  18)         12 seconds
    (i =   3 of  18)         19 seconds
    (i =   4 of  18)         26 seconds
    (i =   5 of  18)         34 seconds
    (i =   6 of  18)         41 seconds
    (i =   7 of  18)         49 seconds
