
    -----------------------------------------------------------------------
          Psi4: An Open-Source Ab Initio Electronic Structure Package
                               Psi4 1.9.1 release

                         Git: Rev {} zzzzzzz 


    D. G. A. Smith, L. A. Burns, A. C. Simmonett, R. M. Parrish,
    M. C. Schieber, R. Galvelis, P. Kraus, H. Kruse, R. Di Remigio,
    A. Alenaizan, A. M. James, S. Lehtola, J. P. Misiewicz, M. Scheurer,
    R. A. Shaw, J. B. Schriber, Y. Xie, Z. L. Glick, D. A. Sirianni,
    J. S. O'Brien, J. M. Waldrop, A. Kumar, E. G. Hohenstein,
    B. P. Pritchard, B. R. Brooks, H. F. Schaefer III, A. Yu. Sokolov,
    K. Patkowski, A. E. DePrince III, U. Bozkaya, R. A. King,
    F. A. Evangelista, J. M. Turney, T. D. Crawford, C. D. Sherrill,
    J. Chem. Phys. 152(18) 184108 (2020). https://doi.org/10.1063/5.0006002

                            Additional Code Authors
    E. T. Seidl, C. L. Janssen, E. F. Valeev, M. L. Leininger,
    J. F. Gonthier, R. M. Richard, H. R. McAlexander, M. Saitow, X. Wang,
    P. Verma, M. H. Lechner, A. Jiang, S. Behnle, A. G. Heide,
    M. F. Herbst, and D. L. Poole

             Previous Authors, Complete List of Code Contributors,
                       and Citations for Specific Modules
    https://github.com/psi4/psi4/blob/master/codemeta.json
    https://github.com/psi4/psi4/graphs/contributors
    http://psicode.org/psi4manual/master/introduction.html#citing-psifour

    -----------------------------------------------------------------------


    Psi4 started on: Thursday, 26 September 2024 03:25PM

    Process ID: 636602
    Host:       cmpsrv002
    PSIDATADIR: /home/vance/anaconda3/envs/p4env/share/psi4
    Memory:     500.0 MiB
    Threads:    8
    
  ==> Input File <==

--------------------------------------------------------------------------
#charge=0 charge_a=0 charge_b=0 selection_a=1-2 selection_b=3-6 scaling=0.9 benchmark_Eint=-7.665 benchmark_unit=kcal/mol group=XH-N
set_num_threads(4)
memory 8 GB
basis this_basis {
    assign    def2-qzvp
}

molecule {
     0 1
    --
     0 1
     H       -0.13083        0.13151       -0.43120
     I        0.01507       -0.01526       -2.14801
    --
     0 1
     N       -0.25301        0.25448        1.00818
     H        0.03704       -0.60611        1.45486
     H        0.33099        1.01074        1.34177
     H       -1.21449        0.44681        1.25884
}

set {
    scf_type                DF
    freeze_core             false
    do_ind_exch_sinf        true
    do_disp_exch_sinf       true
}

nrg = energy('sapt2+dmp2')
--------------------------------------------------------------------------
  Threads set to 4 by Python driver.

  Memory set to   7.451 GiB by Python driver.

Scratch directory: /scratch2/vance/psi4/
   => Loading Basis Set <=

    Name: THIS_BASIS
    Role: ORBITAL
    Keyword: BASIS
    atoms 1, 4-6 entry H          line    15 file /home/vance/anaconda3/envs/p4env/share/psi4/basis/def2-qzvp.gbs 
    atoms 2      entry I          line  3289 (ECP: line  4841) file /home/vance/anaconda3/envs/p4env/share/psi4/basis/def2-qzvp.gbs 
    atoms 3      entry N          line   242 file /home/vance/anaconda3/envs/p4env/share/psi4/basis/def2-qzvp.gbs 

    !!!  WARNING: ECP capability is in beta. Please check occupations closely.  !!!

   => Loading Basis Set <=

    Name: THIS_BASIS
    Role: ORBITAL
    Keyword: BASIS
    atoms 1, 4-6 entry H          line    15 file /home/vance/anaconda3/envs/p4env/share/psi4/basis/def2-qzvp.gbs 
    atoms 2      entry I          line  3289 (ECP: line  4841) file /home/vance/anaconda3/envs/p4env/share/psi4/basis/def2-qzvp.gbs 
    atoms 3      entry N          line   242 file /home/vance/anaconda3/envs/p4env/share/psi4/basis/def2-qzvp.gbs 

    !!!  WARNING: ECP capability is in beta. Please check occupations closely.  !!!


  //>>>>>>>>>>>>>>>>>>>>>>>>>>>>>>>>>>>//
  //              Dimer HF             //
  //<<<<<<<<<<<<<<<<<<<<<<<<<<<<<<<<<<<//

   => Libint2 <=

    Primary   basis highest AM E, G, H:  6, 6, 3
    Auxiliary basis highest AM E, G, H:  7, 7, 4
    Onebody   basis highest AM E, G, H:  -, -, -
    Solid Harmonics ordering:            Gaussian

*** tstart() called on cmpsrv002
*** at Thu Sep 26 15:25:33 2024

   => Loading Basis Set <=

    Name: THIS_BASIS
    Role: ORBITAL
    Keyword: BASIS
    atoms 1, 4-6 entry H          line    15 file /home/vance/anaconda3/envs/p4env/share/psi4/basis/def2-qzvp.gbs 
    atoms 2      entry I          line  3289 (ECP: line  4841) file /home/vance/anaconda3/envs/p4env/share/psi4/basis/def2-qzvp.gbs 
    atoms 3      entry N          line   242 file /home/vance/anaconda3/envs/p4env/share/psi4/basis/def2-qzvp.gbs 

    !!!  WARNING: ECP capability is in beta. Please check occupations closely.  !!!


         ---------------------------------------------------------
                                   SCF
               by Justin Turney, Rob Parrish, Andy Simmonett
                          and Daniel G. A. Smith
                              RHF Reference
                        4 Threads,   7629 MiB Core
         ---------------------------------------------------------

  ==> Geometry <==

    Molecular point group: c1
    Full point group: C1

    Geometry (in Angstrom), charge = 0, multiplicity = 1:

       Center              X                  Y                   Z               Mass       
    ------------   -----------------  -----------------  -----------------  -----------------
         H           -0.112785115832     0.113450095989     1.326933395432     1.007825032230
         I            0.033114884168    -0.033319904011    -0.389876604568   126.904471900000
         N           -0.234965115832     0.236420095989     2.766313395432    14.003074004430
         H            0.055084884168    -0.624169904011     3.212993395432     1.007825032230
         H            0.349034884168     0.992680095989     3.099903395432     1.007825032230
         H           -1.196445115832     0.428750095989     3.016973395432     1.007825032230

  Running in c1 symmetry.

  Rotational constants: A =      6.16450  B =      0.10463  C =      0.10463 [cm^-1]
  Rotational constants: A = 184807.05104  B =   3136.68590  C =   3136.68577 [MHz]
  Nuclear repulsion =   62.931093266520620

  Charge       = 0
  Multiplicity = 1
  Electrons    = 36
  Nalpha       = 18
  Nbeta        = 18

  ==> Algorithm <==

  SCF Algorithm Type is DF.
  DIIS enabled.
  MOM disabled.
  Fractional occupation disabled.
  Guess Type is SAD.
  Energy threshold   = 1.00e-08
  Density threshold  = 1.00e-08
  Integral threshold = 1.00e-12

  ==> Primary Basis <==

  Basis Set: THIS_BASIS
    Blend: DEF2-QZVP
    Number of shells: 79
    Number of basis functions: 259
    Number of Cartesian functions: 316
    Spherical Harmonics?: true
    Max angular momentum: 4

  Core potential: THIS_BASIS
    Number of shells: 4
    Number of ECP primitives: 29
    Number of ECP core electrons: 28
    Max angular momentum: 3

   => Loading Basis Set <=

    Name: (THIS_BASIS AUX)
    Role: JKFIT
    Keyword: DF_BASIS_SCF
    atoms 1, 4-6 entry H          line    18 file /home/vance/anaconda3/envs/p4env/share/psi4/basis/def2-universal-jkfit.gbs 
    atoms 2      entry I          line  4980 file /home/vance/anaconda3/envs/p4env/share/psi4/basis/def2-universal-jkfit.gbs 
    atoms 3      entry N          line   258 file /home/vance/anaconda3/envs/p4env/share/psi4/basis/def2-universal-jkfit.gbs 

  ==> Integral Setup <==

  ==> DiskDFJK: Density-Fitted J/K Matrices <==

    J tasked:                  Yes
    K tasked:                  Yes
    wK tasked:                  No
    OpenMP threads:              4
    Integrals threads:           4
    Memory [MiB]:             5722
    Algorithm:                Core
    Integral Cache:           SAVE
    Schwarz Cutoff:          1E-12
    Fitting Condition:       1E-10

   => Auxiliary Basis Set <=

  Basis Set: (THIS_BASIS AUX)
    Blend: DEF2-UNIVERSAL-JKFIT
    Number of shells: 95
    Number of basis functions: 367
    Number of Cartesian functions: 482
    Spherical Harmonics?: true
    Max angular momentum: 5

  Minimum eigenvalue in the overlap matrix is 9.7646816998E-05.
  Reciprocal condition number of the overlap matrix is 1.1094349834E-05.
    Using symmetric orthogonalization.

  ==> Pre-Iterations <==

  SCF Guess: Superposition of Atomic Densities via on-the-fly atomic UHF (no occupation information).

   -------------------------
    Irrep   Nso     Nmo    
   -------------------------
     A        259     259 
   -------------------------
    Total     259     259
   -------------------------

  ==> Iterations <==

                           Total Energy        Delta E     RMS |[F,P]|

   @DF-RHF iter SAD:  -350.26480357663695   -3.50265e+02   0.00000e+00 
   @DF-RHF iter   1:  -352.99890369757611   -2.73410e+00   3.70153e-03 ADIIS/DIIS
   @DF-RHF iter   2:  -353.39406835683502   -3.95165e-01   2.12258e-03 ADIIS/DIIS
   @DF-RHF iter   3:  -353.46281298386890   -6.87446e-02   1.75466e-04 ADIIS/DIIS
   @DF-RHF iter   4:  -353.46449073330649   -1.67775e-03   6.40345e-05 DIIS
   @DF-RHF iter   5:  -353.46473396210968   -2.43229e-04   3.17833e-05 DIIS
   @DF-RHF iter   6:  -353.46477481748104   -4.08554e-05   7.82879e-06 DIIS
   @DF-RHF iter   7:  -353.46478045051367   -5.63303e-06   2.59781e-06 DIIS
   @DF-RHF iter   8:  -353.46478081973805   -3.69224e-07   7.55453e-07 DIIS
   @DF-RHF iter   9:  -353.46478089312131   -7.33833e-08   1.63648e-07 DIIS
   @DF-RHF iter  10:  -353.46478089612202   -3.00071e-09   2.95220e-08 DIIS
   @DF-RHF iter  11:  -353.46478089622792   -1.05899e-10   6.98176e-09 DIIS
  Energy and wave function converged.


  ==> Post-Iterations <==

    Orbital Energies [Eh]
    ---------------------

    Doubly Occupied:                                                      

       1A    -15.622127     2A     -7.677643     3A     -5.528482  
       4A     -5.524647     5A     -5.524647     6A     -2.224109  
       7A     -2.221395     8A     -2.221395     9A     -2.217161  
      10A     -2.217161    11A     -1.229508    12A     -0.852871  
      13A     -0.713144    14A     -0.713144    15A     -0.612768  
      16A     -0.371195    17A     -0.332198    18A     -0.332198  

    Virtual:                                                              

      19A      0.069040    20A      0.127379    21A      0.127381  
      22A      0.162543    23A      0.194713    24A      0.234661  
      25A      0.234665    26A      0.252095    27A      0.252096  
      28A      0.283396    29A      0.310287    30A      0.324344  
      31A      0.324347    32A      0.357255    33A      0.357278  
      34A      0.392359    35A      0.468234    36A      0.468237  
      37A      0.472829    38A      0.524254    39A      0.524261  
      40A      0.594011    41A      0.743524    42A      0.752672  
      43A      0.752675    44A      0.806969    45A      0.806990  
      46A      0.815310    47A      0.852169    48A      0.857381  
      49A      0.858348    50A      0.867411    51A      0.867416  
      52A      0.901671    53A      0.956866    54A      0.956866  
      55A      0.986417    56A      1.002041    57A      1.002048  
      58A      1.020262    59A      1.020266    60A      1.059726  
      61A      1.059728    62A      1.073741    63A      1.073754  
      64A      1.095415    65A      1.116388    66A      1.167291  
      67A      1.167294    68A      1.242419    69A      1.316813  
      70A      1.316825    71A      1.321905    72A      1.352415  
      73A      1.418374    74A      1.492072    75A      1.492096  
      76A      1.611683    77A      1.611684    78A      1.614481  
      79A      1.615781    80A      1.645632    81A      1.645633  
      82A      1.720218    83A      1.859269    84A      1.859288  
      85A      1.867891    86A      2.001877    87A      2.001882  
      88A      2.064669    89A      2.154307    90A      2.154752  
      91A      2.163139    92A      2.163139    93A      2.189237  
      94A      2.189246    95A      2.279565    96A      2.297272  
      97A      2.320877    98A      2.320897    99A      2.326924  
     100A      2.375850   101A      2.375866   102A      2.500616  
     103A      2.500658   104A      2.533584   105A      2.533597  
     106A      2.599553   107A      2.599557   108A      2.637692  
     109A      2.673344   110A      2.673352   111A      2.691475  
     112A      2.811928   113A      2.811989   114A      2.860025  
     115A      2.925941   116A      2.968044   117A      2.968053  
     118A      2.982834   119A      2.982844   120A      3.014427  
     121A      3.110064   122A      3.110070   123A      3.116671  
     124A      3.116695   125A      3.161634   126A      3.204806  
     127A      3.235234   128A      3.235289   129A      3.293524  
     130A      3.320231   131A      3.320293   132A      3.337237  
     133A      3.422875   134A      3.505378   135A      3.505383  
     136A      3.668498   137A      3.751069   138A      3.751081  
     139A      3.792080   140A      3.792084   141A      3.794495  
     142A      3.794903   143A      3.829274   144A      3.897698  
     145A      3.897711   146A      3.939399   147A      4.108994  
     148A      4.250510   149A      4.250542   150A      4.268850  
     151A      4.309742   152A      4.309789   153A      4.585227  
     154A      4.585229   155A      4.587085   156A      4.880107  
     157A      5.410319   158A      5.410355   159A      5.507495  
     160A      6.038521   161A      6.038528   162A      6.067688  
     163A      6.074633   164A      6.197401   165A      6.197409  
     166A      6.250441   167A      6.292632   168A      6.292645  
     169A      6.309612   170A      6.345458   171A      6.345480  
     172A      6.707719   173A      6.747115   174A      6.872012  
     175A      6.872112   176A      7.000507   177A      7.000514  
     178A      7.017961   179A      7.202562   180A      7.342054  
     181A      7.375080   182A      7.375131   183A      7.548779  
     184A      7.548800   185A      7.606427   186A      7.606488  
     187A      7.615202   188A      7.661213   189A      7.661248  
     190A      7.747864   191A      7.960549   192A      7.960571  
     193A      7.986687   194A      8.066324   195A      8.066361  
     196A      8.181711   197A      8.181743   198A      8.235278  
     199A      8.302372   200A      8.302425   201A      8.321671  
     202A      8.443380   203A      8.454538   204A      8.455275  
     205A      8.455279   206A      8.592851   207A      8.600974  
     208A      8.601038   209A      8.642219   210A      8.832064  
     211A      8.832089   212A      8.926725   213A      8.937227  
     214A      8.937264   215A      9.042592   216A      9.107968  
     217A      9.108044   218A      9.238229   219A      9.238260  
     220A      9.404934   221A      9.574216   222A      9.574237  
     223A      9.905427   224A     10.002617   225A     10.051105  
     226A     10.051164   227A     10.125606   228A     10.125632  
     229A     10.235024   230A     10.481858   231A     10.481876  
     232A     10.596667   233A     11.257929   234A     11.576580  
     235A     11.657062   236A     11.657078   237A     12.079705  
     238A     12.080426   239A     12.080442   240A     12.270052  
     241A     12.270068   242A     12.328377   243A     12.328739  
     244A     12.333541   245A     12.333543   246A     12.396663  
     247A     12.458707   248A     12.458711   249A     12.763064  
     250A     14.821774   251A     14.821803   252A     14.982061  
     253A     15.724426   254A     39.462376   255A     40.411727  
     256A     40.411727   257A     40.584324   258A     79.293083  
     259A    200.617624  

    Final Occupation by Irrep:
              A 
    DOCC [    18 ]
    NA   [    18 ]
    NB   [    18 ]

  @DF-RHF Final Energy:  -353.46478089622792

   => Energetics <=

    Nuclear Repulsion Energy =             62.9310932665206195
    One-Electron Energy =                -720.5201511894922533
    Two-Electron Energy =                 304.1242770267436981
    Total Energy =                       -353.4647808962279214

Computation Completed


Properties will be evaluated at   0.000000,   0.000000,   0.000000 [a0]

Properties computed using the SCF density matrix


 Multipole Moments:

 ------------------------------------------------------------------------------------
     Multipole            Electronic (a.u.)      Nuclear  (a.u.)        Total (a.u.)
 ------------------------------------------------------------------------------------

 L = 1.  Multiply by 2.5417464519 to convert [e a0] to [Debye]
 Dipole X            :          3.0416809           -3.2540974           -0.2124165
 Dipole Y            :         -3.0605024            3.2742405            0.2137381
 Dipole Z            :        -35.8111672           38.3124629            2.5012956
 Magnitude           :                                                    2.5193818

 ------------------------------------------------------------------------------------

*** tstop() called on cmpsrv002 at Thu Sep 26 15:25:42 2024
Module time:
	user time   =      17.10 seconds =       0.29 minutes
	system time =       1.76 seconds =       0.03 minutes
	total time  =          9 seconds =       0.15 minutes
Total time:
	user time   =      17.10 seconds =       0.29 minutes
	system time =       1.76 seconds =       0.03 minutes
	total time  =          9 seconds =       0.15 minutes

*** tstart() called on cmpsrv002
*** at Thu Sep 26 15:25:42 2024


  //>>>>>>>>>>>>>>>>>>>>>>>>>>>>>>>>>>>//
  //               DFMP2               //
  //<<<<<<<<<<<<<<<<<<<<<<<<<<<<<<<<<<<//

   => Loading Basis Set <=

    Name: (THIS_BASIS AUX)
    Role: RIFIT
    Keyword: DF_BASIS_MP2
    atoms 1, 4-6 entry H          line    23 file /home/vance/anaconda3/envs/p4env/share/psi4/basis/def2-qzvp-ri.gbs 
    atoms 2      entry I          line  4948 file /home/vance/anaconda3/envs/p4env/share/psi4/basis/def2-qzvpp-ri.gbs 
    atoms 3      entry N          line   337 file /home/vance/anaconda3/envs/p4env/share/psi4/basis/def2-qzvp-ri.gbs 

	 --------------------------------------------------------
	                          DF-MP2                         
	      2nd-Order Density-Fitted Moller-Plesset Theory     
	              RMP2 Wavefunction,   4 Threads             
	                                                         
	        Rob Parrish, Justin Turney, Andy Simmonett,      
	           Ed Hohenstein, and C. David Sherrill          
	 --------------------------------------------------------

   => Auxiliary Basis Set <=

  Basis Set: (THIS_BASIS AUX)
    Blend: DEF2-QZVP-RI + DEF2-QZVPP-RI
    Number of shells: 147
    Number of basis functions: 641
    Number of Cartesian functions: 900
    Spherical Harmonics?: true
    Max angular momentum: 6

	 --------------------------------------------------------
	                 NBF =   259, NAUX =   641
	 --------------------------------------------------------
	   CLASS    FOCC     OCC    AOCC    AVIR     VIR    FVIR
	   PAIRS       0      18      18     241     241       0
	 --------------------------------------------------------

	 Will save fitting metric to file 97.

	-----------------------------------------------------------
	 ==================> DF-MP2 Energies <==================== 
	-----------------------------------------------------------
	 Reference Energy          =    -353.4647808962279214 [Eh]
	 Singles Energy            =      -0.0000000000000000 [Eh]
	 Same-Spin Energy          =      -0.3548274633077755 [Eh]
	 Opposite-Spin Energy      =      -0.7843871975643824 [Eh]
	 Correlation Energy        =      -1.1392146608721578 [Eh]
	 Total Energy              =    -354.6039955571000633 [Eh]
	-----------------------------------------------------------
	 ================> DF-SCS-MP2 Energies <================== 
	-----------------------------------------------------------
	 SCS Same-Spin Scale       =       0.3333333333333333 [-]
	 SCS Opposite-Spin Scale   =       1.2000000000000000 [-]
	 SCS Same-Spin Energy      =      -0.1182758211025918 [Eh]
	 SCS Opposite-Spin Energy  =      -0.9412646370772588 [Eh]
	 SCS Correlation Energy    =      -1.0595404581798507 [Eh]
	 SCS Total Energy          =    -354.5243213544077889 [Eh]
	-----------------------------------------------------------


*** tstop() called on cmpsrv002 at Thu Sep 26 15:25:49 2024
Module time:
	user time   =       5.50 seconds =       0.09 minutes
	system time =       0.90 seconds =       0.01 minutes
	total time  =          7 seconds =       0.12 minutes
Total time:
	user time   =      22.61 seconds =       0.38 minutes
	system time =       2.66 seconds =       0.04 minutes
	total time  =         16 seconds =       0.27 minutes

  //>>>>>>>>>>>>>>>>>>>>>>>>>>>>>>>>>>>//
  //            Monomer A HF           //
  //<<<<<<<<<<<<<<<<<<<<<<<<<<<<<<<<<<<//

   => Libint2 <=

    Primary   basis highest AM E, G, H:  6, 6, 3
    Auxiliary basis highest AM E, G, H:  7, 7, 4
    Onebody   basis highest AM E, G, H:  -, -, -
    Solid Harmonics ordering:            Gaussian

*** tstart() called on cmpsrv002
*** at Thu Sep 26 15:25:49 2024

   => Loading Basis Set <=

    Name: THIS_BASIS
    Role: ORBITAL
    Keyword: BASIS
    atoms 1, 4-6 entry H          line    15 file /home/vance/anaconda3/envs/p4env/share/psi4/basis/def2-qzvp.gbs 
    atoms 2      entry I          line  3289 (ECP: line  4841) file /home/vance/anaconda3/envs/p4env/share/psi4/basis/def2-qzvp.gbs 
    atoms 3      entry N          line   242 file /home/vance/anaconda3/envs/p4env/share/psi4/basis/def2-qzvp.gbs 

    !!!  WARNING: ECP capability is in beta. Please check occupations closely.  !!!


         ---------------------------------------------------------
                                   SCF
               by Justin Turney, Rob Parrish, Andy Simmonett
                          and Daniel G. A. Smith
                              RHF Reference
                        4 Threads,   7629 MiB Core
         ---------------------------------------------------------

  ==> Geometry <==

    Molecular point group: c1
    Full point group: C1

    Geometry (in Angstrom), charge = 0, multiplicity = 1:

       Center              X                  Y                   Z               Mass       
    ------------   -----------------  -----------------  -----------------  -----------------
         H           -0.112785115832     0.113450095989     1.326933395432     1.007825032230
         I            0.033114884168    -0.033319904011    -0.389876604568   126.904471900000
      Gh(N)          -0.234965115832     0.236420095989     2.766313395432    14.003074004430
      Gh(H)           0.055084884168    -0.624169904011     3.212993395432     1.007825032230
      Gh(H)           0.349034884168     0.992680095989     3.099903395432     1.007825032230
      Gh(H)          -1.196445115832     0.428750095989     3.016973395432     1.007825032230

  Running in c1 symmetry.

  Rotational constants: A =      6.16450  B =      0.10463  C =      0.10463 [cm^-1]
  Rotational constants: A = 184807.05104  B =   3136.68590  C =   3136.68577 [MHz]
  Nuclear repulsion =    7.650438279290174

  Charge       = 0
  Multiplicity = 1
  Electrons    = 26
  Nalpha       = 13
  Nbeta        = 13

  ==> Algorithm <==

  SCF Algorithm Type is DF.
  DIIS enabled.
  MOM disabled.
  Fractional occupation disabled.
  Guess Type is SAD.
  Energy threshold   = 1.00e-08
  Density threshold  = 1.00e-08
  Integral threshold = 1.00e-12

  ==> Primary Basis <==

  Basis Set: THIS_BASIS
    Blend: DEF2-QZVP
    Number of shells: 79
    Number of basis functions: 259
    Number of Cartesian functions: 316
    Spherical Harmonics?: true
    Max angular momentum: 4

  Core potential: THIS_BASIS
    Number of shells: 4
    Number of ECP primitives: 29
    Number of ECP core electrons: 28
    Max angular momentum: 3

   => Loading Basis Set <=

    Name: (THIS_BASIS AUX)
    Role: JKFIT
    Keyword: DF_BASIS_SCF
    atoms 1, 4-6 entry H          line    18 file /home/vance/anaconda3/envs/p4env/share/psi4/basis/def2-universal-jkfit.gbs 
    atoms 2      entry I          line  4980 file /home/vance/anaconda3/envs/p4env/share/psi4/basis/def2-universal-jkfit.gbs 
    atoms 3      entry N          line   258 file /home/vance/anaconda3/envs/p4env/share/psi4/basis/def2-universal-jkfit.gbs 

  ==> Integral Setup <==

  ==> DiskDFJK: Density-Fitted J/K Matrices <==

    J tasked:                  Yes
    K tasked:                  Yes
    wK tasked:                  No
    OpenMP threads:              4
    Integrals threads:           4
    Memory [MiB]:             5722
    Algorithm:                Core
    Integral Cache:           LOAD
    Schwarz Cutoff:          1E-12
    Fitting Condition:       1E-10

   => Auxiliary Basis Set <=

  Basis Set: (THIS_BASIS AUX)
    Blend: DEF2-UNIVERSAL-JKFIT
    Number of shells: 95
    Number of basis functions: 367
    Number of Cartesian functions: 482
    Spherical Harmonics?: true
    Max angular momentum: 5

  Minimum eigenvalue in the overlap matrix is 9.7646816998E-05.
  Reciprocal condition number of the overlap matrix is 1.1094349834E-05.
    Using symmetric orthogonalization.

  ==> Pre-Iterations <==

  SCF Guess: Superposition of Atomic Densities via on-the-fly atomic UHF (no occupation information).

   -------------------------
    Irrep   Nso     Nmo    
   -------------------------
     A        259     259 
   -------------------------
    Total     259     259
   -------------------------

  ==> Iterations <==

                           Total Energy        Delta E     RMS |[F,P]|

   @DF-RHF iter SAD:  -294.17257239583569   -2.94173e+02   0.00000e+00 
   @DF-RHF iter   1:  -296.91091462862761   -2.73834e+00   3.23576e-03 ADIIS/DIIS
   @DF-RHF iter   2:  -297.18390921196925   -2.72995e-01   1.89791e-03 ADIIS/DIIS
   @DF-RHF iter   3:  -297.23742458608558   -5.35154e-02   1.56016e-04 ADIIS/DIIS
   @DF-RHF iter   4:  -297.23800756121898   -5.82975e-04   7.09386e-05 DIIS
   @DF-RHF iter   5:  -297.23812339768676   -1.15836e-04   1.95719e-05 DIIS
   @DF-RHF iter   6:  -297.23814633511194   -2.29374e-05   3.73191e-06 DIIS
   @DF-RHF iter   7:  -297.23814830167601   -1.96656e-06   6.89138e-07 DIIS
   @DF-RHF iter   8:  -297.23814835672738   -5.50514e-08   2.01576e-07 DIIS
   @DF-RHF iter   9:  -297.23814836109256   -4.36518e-09   6.43590e-08 DIIS
   @DF-RHF iter  10:  -297.23814836169078   -5.98220e-10   3.67720e-08 DIIS
   @DF-RHF iter  11:  -297.23814836183124   -1.40460e-10   1.09773e-08 DIIS
   @DF-RHF iter  12:  -297.23814836185988   -2.86491e-11   1.69164e-09 DIIS
  Energy and wave function converged.


  ==> Post-Iterations <==

    Orbital Energies [Eh]
    ---------------------

    Doubly Occupied:                                                      

       1A     -7.750326     2A     -5.604373     3A     -5.595341  
       4A     -5.595341     5A     -2.300375     6A     -2.295666  
       7A     -2.295666     8A     -2.285474     9A     -2.285474  
      10A     -0.903179    11A     -0.514548    12A     -0.386740  
      13A     -0.386740  

    Virtual:                                                              

      14A      0.046859    15A      0.098438    16A      0.135654  
      17A      0.135655    18A      0.173529    19A      0.210262  
      20A      0.217214    21A      0.217214    22A      0.254346  
      23A      0.254350    24A      0.291415    25A      0.291417  
      26A      0.318466    27A      0.339494    28A      0.368059  
      29A      0.368076    30A      0.429889    31A      0.533964  
      32A      0.533979    33A      0.554557    34A      0.625277  
      35A      0.625277    36A      0.713526    37A      0.759543  
      38A      0.759552    39A      0.788923    40A      0.788926  
      41A      0.806893    42A      0.809867    43A      0.820181  
      44A      0.876936    45A      0.910682    46A      0.910689  
      47A      0.913295    48A      0.942649    49A      0.949149  
      50A      0.949150    51A      0.982113    52A      0.982113  
      53A      0.993518    54A      1.008597    55A      1.008600  
      56A      1.085393    57A      1.085447    58A      1.091187  
      59A      1.114720    60A      1.114737    61A      1.148067  
      62A      1.272995    63A      1.272996    64A      1.280454  
      65A      1.330482    66A      1.367920    67A      1.367922  
      68A      1.466497    69A      1.551717    70A      1.551719  
      71A      1.556332    72A      1.559823    73A      1.563721  
      74A      1.563732    75A      1.637060    76A      1.644200  
      77A      1.644204    78A      1.729148    79A      1.950846  
      80A      1.950848    81A      1.974267    82A      2.096401  
      83A      2.097044    84A      2.109930    85A      2.109930  
      86A      2.148148    87A      2.148162    88A      2.171189  
      89A      2.312035    90A      2.314682    91A      2.314685  
      92A      2.397357    93A      2.397380    94A      2.464679  
      95A      2.489782    96A      2.489812    97A      2.538774  
      98A      2.538783    99A      2.602494   100A      2.672171  
     101A      2.672181   102A      2.680595   103A      2.751542  
     104A      2.751546   105A      2.856611   106A      2.856614  
     107A      2.876431   108A      2.911771   109A      2.911782  
     110A      2.932251   111A      2.932273   112A      2.937277  
     113A      3.028448   114A      3.028491   115A      3.089225  
     116A      3.130290   117A      3.142817   118A      3.142871  
     119A      3.182054   120A      3.182058   121A      3.196554  
     122A      3.303750   123A      3.362188   124A      3.413560  
     125A      3.446756   126A      3.446767   127A      3.485696  
     128A      3.485705   129A      3.551797   130A      3.615163  
     131A      3.615203   132A      3.729006   133A      3.729012  
     134A      3.731378   135A      3.731838   136A      3.808213  
     137A      3.823100   138A      3.823137   139A      3.896081  
     140A      3.908790   141A      3.908805   142A      4.127123  
     143A      4.380765   144A      4.390236   145A      4.420592  
     146A      4.420638   147A      4.507546   148A      4.529571  
     149A      4.529617   150A      5.042788   151A      5.042793  
     152A      5.065946   153A      5.523523   154A      5.969797  
     155A      5.969810   156A      6.069030   157A      6.080517  
     158A      6.235445   159A      6.235454   160A      6.467631  
     161A      6.467642   162A      6.545582   163A      6.547991  
     164A      6.548010   165A      6.567741   166A      6.705521  
     167A      6.705534   168A      7.164868   169A      7.165014  
     170A      7.226382   171A      7.229426   172A      7.229455  
     173A      7.331935   174A      7.381399   175A      7.655248  
     176A      7.705930   177A      7.705959   178A      7.793814  
     179A      7.888865   180A      7.888879   181A      7.998573  
     182A      8.074524   183A      8.074531   184A      8.131866  
     185A      8.253917   186A      8.253953   187A      8.371612  
     188A      8.371692   189A      8.417489   190A      8.596279  
     191A      8.596314   192A      8.667401   193A      8.667433  
     194A      8.760109   195A      8.798658   196A      8.798688  
     197A      8.802215   198A      8.860067   199A      8.924410  
     200A      8.924462   201A      8.982532   202A      9.068966  
     203A      9.068968   204A      9.117016   205A      9.256002  
     206A      9.318201   207A      9.318213   208A      9.432405  
     209A      9.494083   210A      9.503301   211A      9.503332  
     212A      9.816650   213A      9.869947   214A      9.870005  
     215A      9.967358   216A     10.121283   217A     10.121288  
     218A     10.233297   219A     10.415575   220A     10.415583  
     221A     10.888716   222A     10.888761   223A     10.988831  
     224A     11.086861   225A     11.086888   226A     11.196321  
     227A     11.845432   228A     11.845472   229A     12.099161  
     230A     12.258934   231A     12.258934   232A     12.260824  
     233A     12.261122   234A     12.344099   235A     12.344104  
     236A     12.396786   237A     12.396788   238A     12.656156  
     239A     12.880538   240A     13.680433   241A     13.882666  
     242A     13.882669   243A     14.186890   244A     14.294882  
     245A     14.294888   246A     14.594054   247A     14.594061  
     248A     14.724832   249A     14.918546   250A     16.167319  
     251A     18.298598   252A     18.298648   253A     25.612070  
     254A     40.339809   255A     40.339810   256A     40.507762  
     257A     70.383112   258A     79.220962   259A    318.803591  

    Final Occupation by Irrep:
              A 
    DOCC [    13 ]
    NA   [    13 ]
    NB   [    13 ]

  @DF-RHF Final Energy:  -297.23814836185988

   => Energetics <=

    Nuclear Repulsion Energy =              7.6504382792901735
    One-Electron Energy =                -533.3786855247182075
    Two-Electron Energy =                 228.4900988835681801
    Total Energy =                       -297.2381483618598850

Computation Completed


Properties will be evaluated at   0.000000,   0.000000,   0.000000 [a0]

Properties computed using the SCF density matrix


 Multipole Moments:

 ------------------------------------------------------------------------------------
     Multipole            Electronic (a.u.)      Nuclear  (a.u.)        Total (a.u.)
 ------------------------------------------------------------------------------------

 L = 1.  Multiply by 2.5417464519 to convert [e a0] to [Debye]
 Dipole X            :         -1.3689228            1.3513186           -0.0176042
 Dipole Y            :          1.3774568           -1.3597477            0.0177091
 Dipole Z            :         16.1186052          -15.9114594            0.2071458
 Magnitude           :                                                    0.2086454

 ------------------------------------------------------------------------------------

*** tstop() called on cmpsrv002 at Thu Sep 26 15:25:59 2024
Module time:
	user time   =      13.47 seconds =       0.22 minutes
	system time =       1.32 seconds =       0.02 minutes
	total time  =         10 seconds =       0.17 minutes
Total time:
	user time   =      36.09 seconds =       0.60 minutes
	system time =       3.98 seconds =       0.07 minutes
	total time  =         26 seconds =       0.43 minutes

*** tstart() called on cmpsrv002
*** at Thu Sep 26 15:25:59 2024


  //>>>>>>>>>>>>>>>>>>>>>>>>>>>>>>>>>>>//
  //               DFMP2               //
  //<<<<<<<<<<<<<<<<<<<<<<<<<<<<<<<<<<<//

   => Loading Basis Set <=

    Name: (THIS_BASIS AUX)
    Role: RIFIT
    Keyword: DF_BASIS_MP2
    atoms 1, 4-6 entry H          line    23 file /home/vance/anaconda3/envs/p4env/share/psi4/basis/def2-qzvp-ri.gbs 
    atoms 2      entry I          line  4948 file /home/vance/anaconda3/envs/p4env/share/psi4/basis/def2-qzvpp-ri.gbs 
    atoms 3      entry N          line   337 file /home/vance/anaconda3/envs/p4env/share/psi4/basis/def2-qzvp-ri.gbs 

	 --------------------------------------------------------
	                          DF-MP2                         
	      2nd-Order Density-Fitted Moller-Plesset Theory     
	              RMP2 Wavefunction,   4 Threads             
	                                                         
	        Rob Parrish, Justin Turney, Andy Simmonett,      
	           Ed Hohenstein, and C. David Sherrill          
	 --------------------------------------------------------

   => Auxiliary Basis Set <=

  Basis Set: (THIS_BASIS AUX)
    Blend: DEF2-QZVP-RI + DEF2-QZVPP-RI
    Number of shells: 147
    Number of basis functions: 641
    Number of Cartesian functions: 900
    Spherical Harmonics?: true
    Max angular momentum: 6

	 --------------------------------------------------------
	                 NBF =   259, NAUX =   641
	 --------------------------------------------------------
	   CLASS    FOCC     OCC    AOCC    AVIR     VIR    FVIR
	   PAIRS       0      13      13     246     246       0
	 --------------------------------------------------------

	 Will attempt to load fitting metric from file 97.

	-----------------------------------------------------------
	 ==================> DF-MP2 Energies <==================== 
	-----------------------------------------------------------
	 Reference Energy          =    -297.2381483618598850 [Eh]
	 Singles Energy            =      -0.0000000000000000 [Eh]
	 Same-Spin Energy          =      -0.2875019396142323 [Eh]
	 Opposite-Spin Energy      =      -0.5595747555554504 [Eh]
	 Correlation Energy        =      -0.8470766951696828 [Eh]
	 Total Energy              =    -298.0852250570295610 [Eh]
	-----------------------------------------------------------
	 ================> DF-SCS-MP2 Energies <================== 
	-----------------------------------------------------------
	 SCS Same-Spin Scale       =       0.3333333333333333 [-]
	 SCS Opposite-Spin Scale   =       1.2000000000000000 [-]
	 SCS Same-Spin Energy      =      -0.0958339798714108 [Eh]
	 SCS Opposite-Spin Energy  =      -0.6714897066665405 [Eh]
	 SCS Correlation Energy    =      -0.7673236865379512 [Eh]
	 SCS Total Energy          =    -298.0054720483978485 [Eh]
	-----------------------------------------------------------


*** tstop() called on cmpsrv002 at Thu Sep 26 15:26:05 2024
Module time:
	user time   =       3.78 seconds =       0.06 minutes
	system time =       0.68 seconds =       0.01 minutes
	total time  =          6 seconds =       0.10 minutes
Total time:
	user time   =      39.88 seconds =       0.66 minutes
	system time =       4.67 seconds =       0.08 minutes
	total time  =         32 seconds =       0.53 minutes

  //>>>>>>>>>>>>>>>>>>>>>>>>>>>>>>>>>>>//
  //            Monomer B HF           //
  //<<<<<<<<<<<<<<<<<<<<<<<<<<<<<<<<<<<//

   => Libint2 <=

    Primary   basis highest AM E, G, H:  6, 6, 3
    Auxiliary basis highest AM E, G, H:  7, 7, 4
    Onebody   basis highest AM E, G, H:  -, -, -
    Solid Harmonics ordering:            Gaussian

*** tstart() called on cmpsrv002
*** at Thu Sep 26 15:26:05 2024

   => Loading Basis Set <=

    Name: THIS_BASIS
    Role: ORBITAL
    Keyword: BASIS
    atoms 1, 4-6 entry H          line    15 file /home/vance/anaconda3/envs/p4env/share/psi4/basis/def2-qzvp.gbs 
    atoms 2      entry I          line  3289 (ECP: line  4841) file /home/vance/anaconda3/envs/p4env/share/psi4/basis/def2-qzvp.gbs 
    atoms 3      entry N          line   242 file /home/vance/anaconda3/envs/p4env/share/psi4/basis/def2-qzvp.gbs 

    !!!  WARNING: ECP capability is in beta. Please check occupations closely.  !!!


         ---------------------------------------------------------
                                   SCF
               by Justin Turney, Rob Parrish, Andy Simmonett
                          and Daniel G. A. Smith
                              RHF Reference
                        4 Threads,   7629 MiB Core
         ---------------------------------------------------------

  ==> Geometry <==

    Molecular point group: c1
    Full point group: C1

    Geometry (in Angstrom), charge = 0, multiplicity = 1:

       Center              X                  Y                   Z               Mass       
    ------------   -----------------  -----------------  -----------------  -----------------
      Gh(H)          -0.112785115832     0.113450095989     1.326933395432     1.007825032230
      Gh(I)           0.033114884168    -0.033319904011    -0.389876604568   126.904471900000
         N           -0.234965115832     0.236420095989     2.766313395432    14.003074004430
         H            0.055084884168    -0.624169904011     3.212993395432     1.007825032230
         H            0.349034884168     0.992680095989     3.099903395432     1.007825032230
         H           -1.196445115832     0.428750095989     3.016973395432     1.007825032230

  Running in c1 symmetry.

  Rotational constants: A =      6.16450  B =      0.10463  C =      0.10463 [cm^-1]
  Rotational constants: A = 184807.05104  B =   3136.68590  C =   3136.68577 [MHz]
  Nuclear repulsion =   11.944045731016566

  Charge       = 0
  Multiplicity = 1
  Electrons    = 10
  Nalpha       = 5
  Nbeta        = 5

  ==> Algorithm <==

  SCF Algorithm Type is DF.
  DIIS enabled.
  MOM disabled.
  Fractional occupation disabled.
  Guess Type is SAD.
  Energy threshold   = 1.00e-08
  Density threshold  = 1.00e-08
  Integral threshold = 1.00e-12

  ==> Primary Basis <==

  Basis Set: THIS_BASIS
    Blend: DEF2-QZVP
    Number of shells: 79
    Number of basis functions: 259
    Number of Cartesian functions: 316
    Spherical Harmonics?: true
    Max angular momentum: 4

  Core potential: THIS_BASIS
    Number of shells: 4
    Number of ECP primitives: 29
    Number of ECP core electrons: 0
    Max angular momentum: 3

   => Loading Basis Set <=

    Name: (THIS_BASIS AUX)
    Role: JKFIT
    Keyword: DF_BASIS_SCF
    atoms 1, 4-6 entry H          line    18 file /home/vance/anaconda3/envs/p4env/share/psi4/basis/def2-universal-jkfit.gbs 
    atoms 2      entry I          line  4980 file /home/vance/anaconda3/envs/p4env/share/psi4/basis/def2-universal-jkfit.gbs 
    atoms 3      entry N          line   258 file /home/vance/anaconda3/envs/p4env/share/psi4/basis/def2-universal-jkfit.gbs 

  ==> Integral Setup <==

  ==> DiskDFJK: Density-Fitted J/K Matrices <==

    J tasked:                  Yes
    K tasked:                  Yes
    wK tasked:                  No
    OpenMP threads:              4
    Integrals threads:           4
    Memory [MiB]:             5722
    Algorithm:                Core
    Integral Cache:           LOAD
    Schwarz Cutoff:          1E-12
    Fitting Condition:       1E-10

   => Auxiliary Basis Set <=

  Basis Set: (THIS_BASIS AUX)
    Blend: DEF2-UNIVERSAL-JKFIT
    Number of shells: 95
    Number of basis functions: 367
    Number of Cartesian functions: 482
    Spherical Harmonics?: true
    Max angular momentum: 5

  Minimum eigenvalue in the overlap matrix is 9.7646816998E-05.
  Reciprocal condition number of the overlap matrix is 1.1094349834E-05.
    Using symmetric orthogonalization.

  ==> Pre-Iterations <==

  SCF Guess: Superposition of Atomic Densities via on-the-fly atomic UHF (no occupation information).

   -------------------------
    Irrep   Nso     Nmo    
   -------------------------
     A        259     259 
   -------------------------
    Total     259     259
   -------------------------

  ==> Iterations <==

                           Total Energy        Delta E     RMS |[F,P]|

   @DF-RHF iter SAD:   -55.64996256696490   -5.56500e+01   0.00000e+00 
   @DF-RHF iter   1:   -56.12999209709246   -4.80030e-01   1.77364e-03 ADIIS/DIIS
   @DF-RHF iter   2:   -56.19684933746934   -6.68572e-02   1.02261e-03 ADIIS/DIIS
   @DF-RHF iter   3:   -56.22371584530688   -2.68665e-02   9.46911e-05 DIIS
   @DF-RHF iter   4:   -56.22434222743280   -6.26382e-04   1.75526e-05 DIIS
   @DF-RHF iter   5:   -56.22436261833840   -2.03909e-05   3.27254e-06 DIIS
   @DF-RHF iter   6:   -56.22436382936653   -1.21103e-06   8.47393e-07 DIIS
   @DF-RHF iter   7:   -56.22436391499967   -8.56331e-08   1.87744e-07 DIIS
   @DF-RHF iter   8:   -56.22436391951393   -4.51426e-09   2.96625e-08 DIIS
   @DF-RHF iter   9:   -56.22436391962537   -1.11434e-10   8.37324e-09 DIIS
  Energy and wave function converged.


  ==> Post-Iterations <==

    Orbital Energies [Eh]
    ---------------------

    Doubly Occupied:                                                      

       1A    -15.538023     2A     -1.137938     3A     -0.631729  
       4A     -0.631728     5A     -0.422815  

    Virtual:                                                              

       6A      0.092988     7A      0.109954     8A      0.139839  
       9A      0.139839    10A      0.171011    11A      0.171014  
      12A      0.189307    13A      0.313806    14A      0.314275  
      15A      0.314278    16A      0.352991    17A      0.425535  
      18A      0.425537    19A      0.436872    20A      0.451627  
      21A      0.451646    22A      0.502382    23A      0.510809  
      24A      0.510809    25A      0.526786    26A      0.529538  
      27A      0.529539    28A      0.596663    29A      0.596674  
      30A      0.659124    31A      0.758285    32A      0.867461  
      33A      0.884176    34A      0.884206    35A      0.900468  
      36A      0.938523    37A      0.938526    38A      0.972111  
      39A      1.028294    40A      1.028296    41A      1.054806  
      42A      1.055448    43A      1.106342    44A      1.106365  
      45A      1.128619    46A      1.128640    47A      1.160759  
      48A      1.240725    49A      1.260479    50A      1.260492  
      51A      1.324701    52A      1.335906    53A      1.343664  
      54A      1.343666    55A      1.363124    56A      1.367945  
      57A      1.367946    58A      1.403502    59A      1.403510  
      60A      1.412134    61A      1.412139    62A      1.434646  
      63A      1.629180    64A      1.633606    65A      1.633626  
      66A      1.762833    67A      1.952621    68A      1.952645  
      69A      2.066027    70A      2.210473    71A      2.245163  
      72A      2.245184    73A      2.332214    74A      2.332234  
      75A      2.340910    76A      2.394845    77A      2.492793  
      78A      2.492797    79A      2.584366    80A      2.584371  
      81A      2.612769    82A      2.625423    83A      2.625425  
      84A      2.626025    85A      2.626025    86A      2.626713  
      87A      2.627448    88A      2.652642    89A      2.652678  
      90A      2.758601    91A      2.796090    92A      2.796136  
      93A      2.911507    94A      2.925070    95A      2.925083  
      96A      2.943370    97A      2.958687    98A      2.958722  
      99A      3.066860   100A      3.162873   101A      3.162894  
     102A      3.180011   103A      3.182225   104A      3.188587  
     105A      3.188593   106A      3.220138   107A      3.220148  
     108A      3.223566   109A      3.256947   110A      3.256988  
     111A      3.276841   112A      3.302678   113A      3.327301  
     114A      3.327322   115A      3.353516   116A      3.428886  
     117A      3.428888   118A      3.481289   119A      3.556882  
     120A      3.556884   121A      3.593814   122A      3.593848  
     123A      3.613239   124A      3.682828   125A      3.682840  
     126A      3.762063   127A      3.887509   128A      3.981742  
     129A      3.981760   130A      4.166926   131A      4.196625  
     132A      4.345499   133A      4.345521   134A      4.392840  
     135A      4.392879   136A      4.424972   137A      4.662521  
     138A      4.662523   139A      4.725119   140A      4.997898  
     141A      5.493610   142A      5.493647   143A      5.667171  
     144A      6.173469   145A      6.173478   146A      6.274694  
     147A      6.274699   148A      6.318571   149A      6.375145  
     150A      6.383526   151A      6.385921   152A      6.385926  
     153A      6.538791   154A      6.589751   155A      6.589771  
     156A      6.781523   157A      6.936875   158A      7.078637  
     159A      7.078665   160A      7.100496   161A      7.100554  
     162A      7.276692   163A      7.464059   164A      7.464114  
     165A      7.510174   166A      7.625665   167A      7.625669  
     168A      7.682920   169A      7.695241   170A      7.695283  
     171A      7.727818   172A      7.888833   173A      7.888940  
     174A      8.063978   175A      8.086867   176A      8.086912  
     177A      8.195096   178A      8.195109   179A      8.252933  
     180A      8.310732   181A      8.446002   182A      8.446015  
     183A      8.447334   184A      8.531799   185A      8.591984  
     186A      8.592020   187A      8.671649   188A      8.717783  
     189A      8.840862   190A      8.840904   191A      8.844002  
     192A      8.950452   193A      8.950462   194A      9.005236  
     195A      9.005243   196A      9.127728   197A      9.127745  
     198A      9.133763   199A      9.331683   200A      9.331733  
     201A      9.456974   202A      9.644951   203A      9.644969  
     204A      9.775658   205A      9.775681   206A      9.947971  
     207A     10.073744   208A     10.147300   209A     10.147359  
     210A     10.149923   211A     10.278147   212A     10.278196  
     213A     10.318904   214A     10.407268   215A     10.572245  
     216A     10.572271   217A     10.597344   218A     10.597836  
     219A     10.607353   220A     10.607353   221A     10.722087  
     222A     10.812825   223A     10.812830   224A     11.183073  
     225A     11.650533   226A     11.738065   227A     11.738081  
     228A     12.000328   229A     12.162758   230A     12.162774  
     231A     12.185022   232A     12.358283   233A     12.358299  
     234A     12.473933   235A     13.861346   236A     13.861347  
     237A     14.688502   238A     14.696567   239A     14.696569  
     240A     14.772512   241A     14.772523   242A     14.915163  
     243A     14.915188   244A     15.414077   245A     15.825614  
     246A     32.656099   247A     32.656265   248A     32.659484  
     249A     32.659484   250A     32.729181   251A     32.729182  
     252A     32.891027   253A     36.480049   254A     39.551351  
     255A     91.301902   256A     91.301903   257A     91.393889  
     258A    168.289190   259A    200.701489  

    Final Occupation by Irrep:
              A 
    DOCC [     5 ]
    NA   [     5 ]
    NB   [     5 ]

  @DF-RHF Final Energy:   -56.22436391962537

   => Energetics <=

    Nuclear Repulsion Energy =             11.9440457310165655
    One-Electron Energy =                 -99.6123526902574525
    Two-Electron Energy =                  31.4439430396155117
    Total Energy =                        -56.2243639196253682

Computation Completed


Properties will be evaluated at   0.000000,   0.000000,   0.000000 [a0]

Properties computed using the SCF density matrix


 Multipole Moments:

 ------------------------------------------------------------------------------------
     Multipole            Electronic (a.u.)      Nuclear  (a.u.)        Total (a.u.)
 ------------------------------------------------------------------------------------

 L = 1.  Multiply by 2.5417464519 to convert [e a0] to [Debye]
 Dipole X            :          4.5554217           -4.6054159           -0.0499942
 Dipole Y            :         -4.5836675            4.6339882            0.0503208
 Dipole Z            :        -53.6344164           54.2239223            0.5895059
 Magnitude           :                                                    0.5937582

 ------------------------------------------------------------------------------------

*** tstop() called on cmpsrv002 at Thu Sep 26 15:26:13 2024
Module time:
	user time   =      11.52 seconds =       0.19 minutes
	system time =       1.06 seconds =       0.02 minutes
	total time  =          8 seconds =       0.13 minutes
Total time:
	user time   =      51.42 seconds =       0.86 minutes
	system time =       5.73 seconds =       0.10 minutes
	total time  =         40 seconds =       0.67 minutes

*** tstart() called on cmpsrv002
*** at Thu Sep 26 15:26:13 2024


  //>>>>>>>>>>>>>>>>>>>>>>>>>>>>>>>>>>>//
  //               DFMP2               //
  //<<<<<<<<<<<<<<<<<<<<<<<<<<<<<<<<<<<//

   => Loading Basis Set <=

    Name: (THIS_BASIS AUX)
    Role: RIFIT
    Keyword: DF_BASIS_MP2
    atoms 1, 4-6 entry H          line    23 file /home/vance/anaconda3/envs/p4env/share/psi4/basis/def2-qzvp-ri.gbs 
    atoms 2      entry I          line  4948 file /home/vance/anaconda3/envs/p4env/share/psi4/basis/def2-qzvpp-ri.gbs 
    atoms 3      entry N          line   337 file /home/vance/anaconda3/envs/p4env/share/psi4/basis/def2-qzvp-ri.gbs 

	 --------------------------------------------------------
	                          DF-MP2                         
	      2nd-Order Density-Fitted Moller-Plesset Theory     
	              RMP2 Wavefunction,   4 Threads             
	                                                         
	        Rob Parrish, Justin Turney, Andy Simmonett,      
	           Ed Hohenstein, and C. David Sherrill          
	 --------------------------------------------------------

   => Auxiliary Basis Set <=

  Basis Set: (THIS_BASIS AUX)
    Blend: DEF2-QZVP-RI + DEF2-QZVPP-RI
    Number of shells: 147
    Number of basis functions: 641
    Number of Cartesian functions: 900
    Spherical Harmonics?: true
    Max angular momentum: 6

	 --------------------------------------------------------
	                 NBF =   259, NAUX =   641
	 --------------------------------------------------------
	   CLASS    FOCC     OCC    AOCC    AVIR     VIR    FVIR
	   PAIRS       0       5       5     254     254       0
	 --------------------------------------------------------

	 Will attempt to load fitting metric from file 97.

	-----------------------------------------------------------
	 ==================> DF-MP2 Energies <==================== 
	-----------------------------------------------------------
	 Reference Energy          =     -56.2243639196253682 [Eh]
	 Singles Energy            =      -0.0000000000000000 [Eh]
	 Same-Spin Energy          =      -0.0582551257790942 [Eh]
	 Opposite-Spin Energy      =      -0.2198997328682022 [Eh]
	 Correlation Energy        =      -0.2781548586472965 [Eh]
	 Total Energy              =     -56.5025187782726661 [Eh]
	-----------------------------------------------------------
	 ================> DF-SCS-MP2 Energies <================== 
	-----------------------------------------------------------
	 SCS Same-Spin Scale       =       0.3333333333333333 [-]
	 SCS Opposite-Spin Scale   =       1.2000000000000000 [-]
	 SCS Same-Spin Energy      =      -0.0194183752596981 [Eh]
	 SCS Opposite-Spin Energy  =      -0.2638796794418427 [Eh]
	 SCS Correlation Energy    =      -0.2832980547015408 [Eh]
	 SCS Total Energy          =     -56.5076619743269077 [Eh]
	-----------------------------------------------------------


*** tstop() called on cmpsrv002 at Thu Sep 26 15:26:16 2024
Module time:
	user time   =       3.48 seconds =       0.06 minutes
	system time =       0.46 seconds =       0.01 minutes
	total time  =          3 seconds =       0.05 minutes
Total time:
	user time   =      54.91 seconds =       0.92 minutes
	system time =       6.19 seconds =       0.10 minutes
	total time  =         43 seconds =       0.72 minutes
  Constructing Basis Sets for SAPT...

   => Loading Basis Set <=

    Name: (THIS_BASIS AUX)
    Role: RIFIT
    Keyword: DF_BASIS_SAPT
    atoms 1, 4-6 entry H          line    23 file /home/vance/anaconda3/envs/p4env/share/psi4/basis/def2-qzvp-ri.gbs 
    atoms 2      entry I          line  4948 file /home/vance/anaconda3/envs/p4env/share/psi4/basis/def2-qzvpp-ri.gbs 
    atoms 3      entry N          line   337 file /home/vance/anaconda3/envs/p4env/share/psi4/basis/def2-qzvp-ri.gbs 

   => Loading Basis Set <=

    Name: (THIS_BASIS AUX)
    Role: JKFIT
    Keyword: DF_BASIS_ELST
    atoms 1, 4-6 entry H          line    18 file /home/vance/anaconda3/envs/p4env/share/psi4/basis/def2-universal-jkfit.gbs 
    atoms 2      entry I          line  4980 file /home/vance/anaconda3/envs/p4env/share/psi4/basis/def2-universal-jkfit.gbs 
    atoms 3      entry N          line   258 file /home/vance/anaconda3/envs/p4env/share/psi4/basis/def2-universal-jkfit.gbs 


  //>>>>>>>>>>>>>>>>>>>>>>>>>>>>>>>>>>>//
  //             SAPT2+DMP2            //
  //<<<<<<<<<<<<<<<<<<<<<<<<<<<<<<<<<<<//


*** tstart() called on cmpsrv002
*** at Thu Sep 26 15:26:17 2024

        SAPT2+  
    Ed Hohenstein
     6 June 2009

      Orbital Information
  --------------------------
    NSO        =       259
    NMO        =       259
    NRI        =       641
    NOCC A     =        13
    NOCC B     =         5
    FOCC A     =         0
    FOCC B     =         0
    NVIR A     =       246
    NVIR B     =       254

    Estimated memory usage: 592.5 MB

    Natural Orbital Cutoff:   1.000E-06
    Disp(T3) Truncation:            Yes
    CCD (vv|vv) Truncation:         Yes
    MBPT T2 Truncation:             Yes

    Monomer A: 140 virtual orbitals dropped
    Monomer B: 109 virtual orbitals dropped

    Elst10,r            =    -0.063280370000 [Eh]
    Exch10 (S^2)        =     0.111382715591 [Eh]
    Exch10              =     0.122061403676 [Eh]
    Ind20,r (A<-B)      =    -0.035635830102 [Eh]
    Ind20,r (B<-A)      =    -0.024888190030 [Eh]
    Ind20,r             =    -0.060524020132 [Eh]
    Exch-Ind20,r (A<-B) =     0.027002766441 [Eh]
    Exch-Ind20,r (B<-A) =     0.005922563925 [Eh]
    Exch-Ind20,r        =     0.032925330366 [Eh]
    Disp20              =    -0.027425908418 [Eh]
    Disp20 (NO)         =    -0.024541517854 [Eh]
    Exch-Disp20         =     0.005527901405 [Eh]
    Elst12,r            =     0.001975044782 [Eh]
    Exch11              =     0.005890106740 [Eh]
    Exch12              =    -0.005498279095 [Eh]
    Ind22               =     0.000714660629 [Eh]
    Disp21              =     0.003548324434 [Eh]
    Disp22 (SDQ)        =     0.001368124141 [Eh]

    (i =   1 of   5)          6 seconds
    (i =   2 of   5)         12 seconds
    (i =   3 of   5)         17 seconds
    (i =   4 of   5)         22 seconds
    (i =   5 of   5)         27 seconds

    Disp220 (T)         =    -0.001770448635 [Eh]

    (i =   1 of  13)          2 seconds
    (i =   2 of  13)          4 seconds
    (i =   3 of  13)          7 seconds
    (i =   4 of  13)          9 seconds
    (i =   5 of  13)         11 seconds
    (i =   6 of  13)         13 seconds
    (i =   7 of  13)         15 seconds
    (i =   8 of  13)         17 seconds
    (i =   9 of  13)         19 seconds
    (i =  10 of  13)         21 seconds
    (i =  11 of  13)         23 seconds
    (i =  12 of  13)         26 seconds
    (i =  13 of  13)         27 seconds

    Disp202 (T)         =    -0.001698936567 [Eh]

    Disp22 (T)          =    -0.003469385202 [Eh]

    Est. Disp220 (T)    =    -0.001978531337 [Eh]
    Est. Disp202 (T)    =    -0.001898614380 [Eh]

    Est. Disp22 (T)     =    -0.003877145717 [Eh]

    SAPT Results 
  --------------------------------------------------------------------------------------------------------
    Electrostatics                -61.30532522 [mEh]     -38.46967237 [kcal/mol]    -160.95710918 [kJ/mol]
      Elst10,r                    -63.28037000 [mEh]     -39.70903168 [kcal/mol]    -166.14258855 [kJ/mol]
      Elst12,r                      1.97504478 [mEh]       1.23935931 [kcal/mol]       5.18547936 [kJ/mol]

    Exchange                      122.45323132 [mEh]      76.84056275 [kcal/mol]     321.50091454 [kJ/mol]
      Exch10                      122.06140368 [mEh]      76.59468719 [kcal/mol]     320.47217120 [kJ/mol]
      Exch10(S^2)                 111.38271559 [mEh]      69.89370925 [kcal/mol]     292.43527950 [kJ/mol]
      Exch11(S^2)                   5.89010674 [mEh]       3.69609778 [kcal/mol]      15.46447312 [kJ/mol]
      Exch12(S^2)                  -5.49827910 [mEh]      -3.45022222 [kcal/mol]     -14.43572978 [kJ/mol]

    Induction                     -55.50162089 [mEh]     -34.82779292 [kcal/mol]    -145.71948556 [kJ/mol]
      Ind20,r                     -60.52402013 [mEh]     -37.97939602 [kcal/mol]    -158.90579296 [kJ/mol]
      Ind22                         0.71466063 [mEh]       0.44845632 [kcal/mol]       1.87634122 [kJ/mol]
      Exch-Ind20,r                 32.92533037 [mEh]      20.66095673 [kcal/mol]      86.44544297 [kJ/mol]
      Exch-Ind22                   -0.38877849 [mEh]      -0.24396219 [kcal/mol]      -1.02073779 [kJ/mol]
      delta HF,r (2)              -33.45095865 [mEh]     -20.99079346 [kcal/mol]     -87.82547984 [kJ/mol]
      delta MP2,r (2)               5.22214539 [mEh]       3.27694571 [kcal/mol]      13.71074084 [kJ/mol]

    Dispersion                    -20.85870416 [mEh]     -13.08903447 [kcal/mol]     -54.76452022 [kJ/mol]
      Disp20                      -27.42590842 [mEh]     -17.21001736 [kcal/mol]     -72.00671263 [kJ/mol]
      Disp21                        3.54832443 [mEh]       2.22660720 [kcal/mol]       9.31612452 [kJ/mol]
      Disp22 (SDQ)                  1.36812414 [mEh]       0.85851086 [kcal/mol]       3.59200944 [kJ/mol]
      Disp22 (T)                   -3.46938520 [mEh]      -2.17707208 [kcal/mol]      -9.10886959 [kJ/mol]
      Est. Disp22 (T)              -3.87714572 [mEh]      -2.43294567 [kcal/mol]     -10.17944468 [kJ/mol]
      Exch-Disp20                   5.52790140 [mEh]       3.46881050 [kcal/mol]      14.51350314 [kJ/mol]

  Total HF                         -2.26861474 [mEh]      -1.42357724 [kcal/mol]      -5.95624719 [kJ/mol]
  Total SAPT0                     -24.16662176 [mEh]     -15.16478410 [kcal/mol]     -63.44945668 [kJ/mol]
  Total SAPT2                     -21.47386719 [mEh]     -13.47505510 [kcal/mol]     -56.37963055 [kJ/mol]
  Total SAPT2+                    -20.43456433 [mEh]     -12.82288271 [kcal/mol]     -53.65094127 [kJ/mol]
  Total SAPT2+dMP2                -15.21241894 [mEh]      -9.54593700 [kcal/mol]     -39.94020042 [kJ/mol]

  Special recipe for scaled SAPT0 (see Manual):
    Electrostatics sSAPT0         -63.28037000 [mEh]     -39.70903168 [kcal/mol]    -166.14258855 [kJ/mol]
    Exchange sSAPT0               122.06140368 [mEh]      76.59468719 [kcal/mol]     320.47217120 [kJ/mol]
    Induction sSAPT0              -50.64267144 [mEh]     -31.77875611 [kcal/mol]    -132.96231556 [kJ/mol]
    Dispersion sSAPT0             -20.15075825 [mEh]     -12.64479171 [kcal/mol]     -52.90580851 [kJ/mol]
  Total sSAPT0                    -12.01239602 [mEh]      -7.53789231 [kcal/mol]     -31.53854141 [kJ/mol]
  --------------------------------------------------------------------------------------------------------

*** tstop() called on cmpsrv002 at Thu Sep 26 15:33:30 2024
Module time:
	user time   =     425.04 seconds =       7.08 minutes
	system time =      27.08 seconds =       0.45 minutes
	total time  =        433 seconds =       7.22 minutes
Total time:
	user time   =     480.45 seconds =       8.01 minutes
	system time =      33.31 seconds =       0.56 minutes
	total time  =        477 seconds =       7.95 minutes

    Psi4 stopped on: Thursday, 26 September 2024 03:33PM
    Psi4 wall time for execution: 0:07:57.53

*** Psi4 exiting successfully. Buy a developer a beer!
