
    -----------------------------------------------------------------------
          Psi4: An Open-Source Ab Initio Electronic Structure Package
                               Psi4 1.9.1 release

                         Git: Rev {} zzzzzzz 


    D. G. A. Smith, L. A. Burns, A. C. Simmonett, R. M. Parrish,
    M. C. Schieber, R. Galvelis, P. Kraus, H. Kruse, R. Di Remigio,
    A. Alenaizan, A. M. James, S. Lehtola, J. P. Misiewicz, M. Scheurer,
    R. A. Shaw, J. B. Schriber, Y. Xie, Z. L. Glick, D. A. Sirianni,
    J. S. O'Brien, J. M. Waldrop, A. Kumar, E. G. Hohenstein,
    B. P. Pritchard, B. R. Brooks, H. F. Schaefer III, A. Yu. Sokolov,
    K. Patkowski, A. E. DePrince III, U. Bozkaya, R. A. King,
    F. A. Evangelista, J. M. Turney, T. D. Crawford, C. D. Sherrill,
    J. Chem. Phys. 152(18) 184108 (2020). https://doi.org/10.1063/5.0006002

                            Additional Code Authors
    E. T. Seidl, C. L. Janssen, E. F. Valeev, M. L. Leininger,
    J. F. Gonthier, R. M. Richard, H. R. McAlexander, M. Saitow, X. Wang,
    P. Verma, M. H. Lechner, A. Jiang, S. Behnle, A. G. Heide,
    M. F. Herbst, and D. L. Poole

             Previous Authors, Complete List of Code Contributors,
                       and Citations for Specific Modules
    https://github.com/psi4/psi4/blob/master/codemeta.json
    https://github.com/psi4/psi4/graphs/contributors
    http://psicode.org/psi4manual/master/introduction.html#citing-psifour

    -----------------------------------------------------------------------


    Psi4 started on: Thursday, 26 September 2024 03:25PM

    Process ID: 636609
    Host:       cmpsrv002
    PSIDATADIR: /home/vance/anaconda3/envs/p4env/share/psi4
    Memory:     500.0 MiB
    Threads:    8
    
  ==> Input File <==

--------------------------------------------------------------------------
#charge=0 charge_a=0 charge_b=0 selection_a=1-2 selection_b=3-6 scaling=2.0 benchmark_Eint=-2.095 benchmark_unit=kcal/mol group=XH-N
set_num_threads(4)
memory 8 GB
basis this_basis {
    assign    def2-qzvp
}

molecule {
     0 1
    --
     0 1
     H       -0.13083        0.13151       -0.43120
     I        0.01507       -0.01526       -2.14801
    --
     0 1
     N       -0.40234        0.40478        2.76742
     H       -0.11229       -0.45581        3.21410
     H        0.18166        1.16104        3.10102
     H       -1.36382        0.59711        3.01808
}

set {
    scf_type                DF
    freeze_core             false
    do_ind_exch_sinf        true
    do_disp_exch_sinf       true
}

nrg = energy('sapt2+dmp2')
--------------------------------------------------------------------------
  Threads set to 4 by Python driver.

  Memory set to   7.451 GiB by Python driver.

Scratch directory: /scratch2/vance/psi4/
   => Loading Basis Set <=

    Name: THIS_BASIS
    Role: ORBITAL
    Keyword: BASIS
    atoms 1, 4-6 entry H          line    15 file /home/vance/anaconda3/envs/p4env/share/psi4/basis/def2-qzvp.gbs 
    atoms 2      entry I          line  3289 (ECP: line  4841) file /home/vance/anaconda3/envs/p4env/share/psi4/basis/def2-qzvp.gbs 
    atoms 3      entry N          line   242 file /home/vance/anaconda3/envs/p4env/share/psi4/basis/def2-qzvp.gbs 

    !!!  WARNING: ECP capability is in beta. Please check occupations closely.  !!!

   => Loading Basis Set <=

    Name: THIS_BASIS
    Role: ORBITAL
    Keyword: BASIS
    atoms 1, 4-6 entry H          line    15 file /home/vance/anaconda3/envs/p4env/share/psi4/basis/def2-qzvp.gbs 
    atoms 2      entry I          line  3289 (ECP: line  4841) file /home/vance/anaconda3/envs/p4env/share/psi4/basis/def2-qzvp.gbs 
    atoms 3      entry N          line   242 file /home/vance/anaconda3/envs/p4env/share/psi4/basis/def2-qzvp.gbs 

    !!!  WARNING: ECP capability is in beta. Please check occupations closely.  !!!


  //>>>>>>>>>>>>>>>>>>>>>>>>>>>>>>>>>>>//
  //              Dimer HF             //
  //<<<<<<<<<<<<<<<<<<<<<<<<<<<<<<<<<<<//

   => Libint2 <=

    Primary   basis highest AM E, G, H:  6, 6, 3
    Auxiliary basis highest AM E, G, H:  7, 7, 4
    Onebody   basis highest AM E, G, H:  -, -, -
    Solid Harmonics ordering:            Gaussian

*** tstart() called on cmpsrv002
*** at Thu Sep 26 15:25:33 2024

   => Loading Basis Set <=

    Name: THIS_BASIS
    Role: ORBITAL
    Keyword: BASIS
    atoms 1, 4-6 entry H          line    15 file /home/vance/anaconda3/envs/p4env/share/psi4/basis/def2-qzvp.gbs 
    atoms 2      entry I          line  3289 (ECP: line  4841) file /home/vance/anaconda3/envs/p4env/share/psi4/basis/def2-qzvp.gbs 
    atoms 3      entry N          line   242 file /home/vance/anaconda3/envs/p4env/share/psi4/basis/def2-qzvp.gbs 

    !!!  WARNING: ECP capability is in beta. Please check occupations closely.  !!!


         ---------------------------------------------------------
                                   SCF
               by Justin Turney, Rob Parrish, Andy Simmonett
                          and Daniel G. A. Smith
                              RHF Reference
                        4 Threads,   7629 MiB Core
         ---------------------------------------------------------

  ==> Geometry <==

    Molecular point group: c1
    Full point group: C1

    Geometry (in Angstrom), charge = 0, multiplicity = 1:

       Center              X                  Y                   Z               Mass       
    ------------   -----------------  -----------------  -----------------  -----------------
         H           -0.095242720216     0.095793750572     1.120268328483     1.007825032230
         I            0.050657279784    -0.050976249428    -0.596541671517   126.904471900000
         N           -0.366752720216     0.369063750572     4.318888328483    14.003074004430
         H           -0.076702720216    -0.491526249428     4.765568328483     1.007825032230
         H            0.217247279784     1.125323750572     4.652488328483     1.007825032230
         H           -1.328232720216     0.561393750572     4.569548328483     1.007825032230

  Running in c1 symmetry.

  Rotational constants: A =      6.16450  B =      0.04435  C =      0.04435 [cm^-1]
  Rotational constants: A = 184807.06373  B =   1329.47049  C =   1329.47046 [MHz]
  Nuclear repulsion =   47.253342624791429

  Charge       = 0
  Multiplicity = 1
  Electrons    = 36
  Nalpha       = 18
  Nbeta        = 18

  ==> Algorithm <==

  SCF Algorithm Type is DF.
  DIIS enabled.
  MOM disabled.
  Fractional occupation disabled.
  Guess Type is SAD.
  Energy threshold   = 1.00e-08
  Density threshold  = 1.00e-08
  Integral threshold = 1.00e-12

  ==> Primary Basis <==

  Basis Set: THIS_BASIS
    Blend: DEF2-QZVP
    Number of shells: 79
    Number of basis functions: 259
    Number of Cartesian functions: 316
    Spherical Harmonics?: true
    Max angular momentum: 4

  Core potential: THIS_BASIS
    Number of shells: 4
    Number of ECP primitives: 29
    Number of ECP core electrons: 28
    Max angular momentum: 3

   => Loading Basis Set <=

    Name: (THIS_BASIS AUX)
    Role: JKFIT
    Keyword: DF_BASIS_SCF
    atoms 1, 4-6 entry H          line    18 file /home/vance/anaconda3/envs/p4env/share/psi4/basis/def2-universal-jkfit.gbs 
    atoms 2      entry I          line  4980 file /home/vance/anaconda3/envs/p4env/share/psi4/basis/def2-universal-jkfit.gbs 
    atoms 3      entry N          line   258 file /home/vance/anaconda3/envs/p4env/share/psi4/basis/def2-universal-jkfit.gbs 

  ==> Integral Setup <==

  ==> DiskDFJK: Density-Fitted J/K Matrices <==

    J tasked:                  Yes
    K tasked:                  Yes
    wK tasked:                  No
    OpenMP threads:              4
    Integrals threads:           4
    Memory [MiB]:             5722
    Algorithm:                Core
    Integral Cache:           SAVE
    Schwarz Cutoff:          1E-12
    Fitting Condition:       1E-10

   => Auxiliary Basis Set <=

  Basis Set: (THIS_BASIS AUX)
    Blend: DEF2-UNIVERSAL-JKFIT
    Number of shells: 95
    Number of basis functions: 367
    Number of Cartesian functions: 482
    Spherical Harmonics?: true
    Max angular momentum: 5

  Minimum eigenvalue in the overlap matrix is 1.6433458104E-04.
  Reciprocal condition number of the overlap matrix is 2.0651573384E-05.
    Using symmetric orthogonalization.

  ==> Pre-Iterations <==

  SCF Guess: Superposition of Atomic Densities via on-the-fly atomic UHF (no occupation information).

   -------------------------
    Irrep   Nso     Nmo    
   -------------------------
     A        259     259 
   -------------------------
    Total     259     259
   -------------------------

  ==> Iterations <==

                           Total Energy        Delta E     RMS |[F,P]|

   @DF-RHF iter SAD:  -349.88942620214959   -3.49889e+02   0.00000e+00 
   @DF-RHF iter   1:  -353.06170602500231   -3.17228e+00   3.63255e-03 ADIIS/DIIS
   @DF-RHF iter   2:  -353.39258277207745   -3.30877e-01   2.07444e-03 ADIIS/DIIS
   @DF-RHF iter   3:  -353.46406170275867   -7.14789e-02   1.56289e-04 ADIIS/DIIS
   @DF-RHF iter   4:  -353.46500348600807   -9.41783e-04   6.85770e-05 DIIS
   @DF-RHF iter   5:  -353.46513221754850   -1.28732e-04   2.26187e-05 DIIS
   @DF-RHF iter   6:  -353.46515650822488   -2.42907e-05   4.81548e-06 DIIS
   @DF-RHF iter   7:  -353.46515798065246   -1.47243e-06   2.25759e-06 DIIS
   @DF-RHF iter   8:  -353.46515824201066   -2.61358e-07   4.40963e-07 DIIS
   @DF-RHF iter   9:  -353.46515826979658   -2.77859e-08   1.14276e-07 DIIS
   @DF-RHF iter  10:  -353.46515827184231   -2.04574e-09   3.66403e-08 DIIS
   @DF-RHF iter  11:  -353.46515827205502   -2.12708e-10   1.21653e-08 DIIS
   @DF-RHF iter  12:  -353.46515827208634   -3.13207e-11   5.58531e-09 DIIS
  Energy and wave function converged.


  ==> Post-Iterations <==

    Orbital Energies [Eh]
    ---------------------

    Doubly Occupied:                                                      

       1A    -15.547846     2A     -7.738024     3A     -5.591785  
       4A     -5.583226     5A     -5.583226     6A     -2.287738  
       7A     -2.283218     8A     -2.283218     9A     -2.273551  
      10A     -2.273551    11A     -1.147539    12A     -0.891562  
      13A     -0.641191    14A     -0.641190    15A     -0.501623  
      16A     -0.433106    17A     -0.375702    18A     -0.375702  

    Virtual:                                                              

      19A      0.074267    20A      0.105527    21A      0.152068  
      22A      0.152068    23A      0.182331    24A      0.204258  
      25A      0.214458    26A      0.214459    27A      0.273315  
      28A      0.273317    29A      0.300100    30A      0.300100  
      31A      0.319621    32A      0.319623    33A      0.330478  
      34A      0.370498    35A      0.443643    36A      0.509498  
      37A      0.514243    38A      0.514244    39A      0.548765  
      40A      0.548765    41A      0.625673    42A      0.665020  
      43A      0.665021    44A      0.806874    45A      0.806874  
      46A      0.814274    47A      0.820265    48A      0.820265  
      49A      0.855754    50A      0.855755    51A      0.859981  
      52A      0.870804    53A      0.911452    54A      0.957663  
      55A      0.957663    56A      0.980172    57A      0.980173  
      58A      0.994342    59A      0.994342    60A      1.013088  
      61A      1.013089    62A      1.020298    63A      1.046251  
      64A      1.049557    65A      1.049560    66A      1.071889  
      67A      1.071894    68A      1.110931    69A      1.237271  
      70A      1.280665    71A      1.280665    72A      1.310757  
      73A      1.398820    74A      1.423535    75A      1.423536  
      76A      1.494442    77A      1.522592    78A      1.553803  
      79A      1.553803    80A      1.567394    81A      1.567394  
      82A      1.576597    83A      1.576597    84A      1.647530  
      85A      1.826385    86A      1.826385    87A      1.932369  
      88A      1.932369    89A      2.087771    90A      2.087771  
      91A      2.107757    92A      2.107757    93A      2.120670  
      94A      2.120670    95A      2.199412    96A      2.292669  
      97A      2.292669    98A      2.333031    99A      2.363294  
     100A      2.386275   101A      2.450262   102A      2.450263  
     103A      2.470467   104A      2.470469   105A      2.523059  
     106A      2.523061   107A      2.568543   108A      2.568550  
     109A      2.577092   110A      2.604152   111A      2.604160  
     112A      2.624952   113A      2.624954   114A      2.767633  
     115A      2.823155   116A      2.823157   117A      2.838126  
     118A      2.880476   119A      2.880476   120A      2.923245  
     121A      2.937097   122A      2.937097   123A      3.016510  
     124A      3.052253   125A      3.052255   126A      3.096983  
     127A      3.109596   128A      3.109599   129A      3.154433  
     130A      3.177639   131A      3.177642   132A      3.215102  
     133A      3.395568   134A      3.442851   135A      3.456733  
     136A      3.456734   137A      3.521654   138A      3.521655  
     139A      3.599182   140A      3.638506   141A      3.732797  
     142A      3.732797   143A      3.742817   144A      3.742817  
     145A      3.808112   146A      3.808112   147A      3.815158  
     148A      3.937862   149A      3.937867   150A      4.195126  
     151A      4.325568   152A      4.343119   153A      4.343124  
     154A      4.571791   155A      4.621398   156A      4.621403  
     157A      5.056717   158A      5.410929   159A      5.410936  
     160A      6.021089   161A      6.059569   162A      6.059569  
     163A      6.162512   164A      6.162513   165A      6.178572  
     166A      6.178572   167A      6.247189   168A      6.247192  
     169A      6.278103   170A      6.312641   171A      6.355781  
     172A      6.355785   173A      6.473285   174A      6.473285  
     175A      6.622045   176A      6.771722   177A      6.880380  
     178A      6.941546   179A      6.941549   180A      7.115783  
     181A      7.115785   182A      7.249702   183A      7.333770  
     184A      7.333780   185A      7.533755   186A      7.573950  
     187A      7.575221   188A      7.575223   189A      7.678702  
     190A      7.678703   191A      7.773539   192A      7.914691  
     193A      7.914697   194A      7.944345   195A      7.989926  
     196A      7.989938   197A      8.115669   198A      8.115670  
     199A      8.204554   200A      8.204554   201A      8.270912  
     202A      8.270915   203A      8.296171   204A      8.314091  
     205A      8.353823   206A      8.353827   207A      8.360430  
     208A      8.511896   209A      8.596248   210A      8.639870  
     211A      8.639870   212A      8.642407   213A      8.674531  
     214A      8.674536   215A      8.800493   216A      8.887346  
     217A      8.887352   218A      8.936164   219A      9.027772  
     220A      9.027775   221A      9.233253   222A      9.439673  
     223A      9.534465   224A      9.534469   225A      9.803550  
     226A      9.803553   227A     10.006018   228A     10.119675  
     229A     10.119679   230A     10.306221   231A     10.522866  
     232A     10.522867   233A     10.548257   234A     11.579230  
     235A     11.688830   236A     11.688839   237A     12.056832  
     238A     12.118935   239A     12.118941   240A     12.268656  
     241A     12.268656   242A     12.272653   243A     12.272653  
     244A     12.291076   245A     12.291095   246A     12.360073  
     247A     12.360073   248A     12.458795   249A     12.629819  
     250A     14.741655   251A     14.821741   252A     14.821743  
     253A     15.699888   254A     39.365343   255A     40.350396  
     256A     40.350396   257A     40.435307   258A     79.048314  
     259A    200.461115  

    Final Occupation by Irrep:
              A 
    DOCC [    18 ]
    NA   [    18 ]
    NB   [    18 ]

  @DF-RHF Final Energy:  -353.46515827208634

   => Energetics <=

    Nuclear Repulsion Energy =             47.2533426247914292
    One-Electron Energy =                -688.5310001856006465
    Two-Electron Energy =                 287.8124992887228473
    Total Energy =                       -353.4651582720863416

Computation Completed


Properties will be evaluated at   0.000000,   0.000000,   0.000000 [a0]

Properties computed using the SCF density matrix


 Multipole Moments:

 ------------------------------------------------------------------------------------
     Multipole            Electronic (a.u.)      Nuclear  (a.u.)        Total (a.u.)
 ------------------------------------------------------------------------------------

 L = 1.  Multiply by 2.5417464519 to convert [e a0] to [Debye]
 Dipole X            :          4.7997350           -4.8826138           -0.0828788
 Dipole Y            :         -4.8299328            4.9133352            0.0834024
 Dipole Z            :        -56.5213222           57.4978461            0.9765239
 Magnitude           :                                                    0.9835771

 ------------------------------------------------------------------------------------

*** tstop() called on cmpsrv002 at Thu Sep 26 15:25:39 2024
Module time:
	user time   =      12.17 seconds =       0.20 minutes
	system time =       1.34 seconds =       0.02 minutes
	total time  =          6 seconds =       0.10 minutes
Total time:
	user time   =      12.17 seconds =       0.20 minutes
	system time =       1.34 seconds =       0.02 minutes
	total time  =          6 seconds =       0.10 minutes

*** tstart() called on cmpsrv002
*** at Thu Sep 26 15:25:39 2024


  //>>>>>>>>>>>>>>>>>>>>>>>>>>>>>>>>>>>//
  //               DFMP2               //
  //<<<<<<<<<<<<<<<<<<<<<<<<<<<<<<<<<<<//

   => Loading Basis Set <=

    Name: (THIS_BASIS AUX)
    Role: RIFIT
    Keyword: DF_BASIS_MP2
    atoms 1, 4-6 entry H          line    23 file /home/vance/anaconda3/envs/p4env/share/psi4/basis/def2-qzvp-ri.gbs 
    atoms 2      entry I          line  4948 file /home/vance/anaconda3/envs/p4env/share/psi4/basis/def2-qzvpp-ri.gbs 
    atoms 3      entry N          line   337 file /home/vance/anaconda3/envs/p4env/share/psi4/basis/def2-qzvp-ri.gbs 

	 --------------------------------------------------------
	                          DF-MP2                         
	      2nd-Order Density-Fitted Moller-Plesset Theory     
	              RMP2 Wavefunction,   4 Threads             
	                                                         
	        Rob Parrish, Justin Turney, Andy Simmonett,      
	           Ed Hohenstein, and C. David Sherrill          
	 --------------------------------------------------------

   => Auxiliary Basis Set <=

  Basis Set: (THIS_BASIS AUX)
    Blend: DEF2-QZVP-RI + DEF2-QZVPP-RI
    Number of shells: 147
    Number of basis functions: 641
    Number of Cartesian functions: 900
    Spherical Harmonics?: true
    Max angular momentum: 6

	 --------------------------------------------------------
	                 NBF =   259, NAUX =   641
	 --------------------------------------------------------
	   CLASS    FOCC     OCC    AOCC    AVIR     VIR    FVIR
	   PAIRS       0      18      18     241     241       0
	 --------------------------------------------------------

	 Will save fitting metric to file 97.

	-----------------------------------------------------------
	 ==================> DF-MP2 Energies <==================== 
	-----------------------------------------------------------
	 Reference Energy          =    -353.4651582720863416 [Eh]
	 Singles Energy            =      -0.0000000000000000 [Eh]
	 Same-Spin Energy          =      -0.3459249691317425 [Eh]
	 Opposite-Spin Energy      =      -0.7781118234341410 [Eh]
	 Correlation Energy        =      -1.1240367925658834 [Eh]
	 Total Energy              =    -354.5891950646522446 [Eh]
	-----------------------------------------------------------
	 ================> DF-SCS-MP2 Energies <================== 
	-----------------------------------------------------------
	 SCS Same-Spin Scale       =       0.3333333333333333 [-]
	 SCS Opposite-Spin Scale   =       1.2000000000000000 [-]
	 SCS Same-Spin Energy      =      -0.1153083230439142 [Eh]
	 SCS Opposite-Spin Energy  =      -0.9337341881209691 [Eh]
	 SCS Correlation Energy    =      -1.0490425111648833 [Eh]
	 SCS Total Energy          =    -354.5142007832512263 [Eh]
	-----------------------------------------------------------


*** tstop() called on cmpsrv002 at Thu Sep 26 15:25:43 2024
Module time:
	user time   =       5.23 seconds =       0.09 minutes
	system time =       0.88 seconds =       0.01 minutes
	total time  =          4 seconds =       0.07 minutes
Total time:
	user time   =      17.40 seconds =       0.29 minutes
	system time =       2.22 seconds =       0.04 minutes
	total time  =         10 seconds =       0.17 minutes

  //>>>>>>>>>>>>>>>>>>>>>>>>>>>>>>>>>>>//
  //            Monomer A HF           //
  //<<<<<<<<<<<<<<<<<<<<<<<<<<<<<<<<<<<//

   => Libint2 <=

    Primary   basis highest AM E, G, H:  6, 6, 3
    Auxiliary basis highest AM E, G, H:  7, 7, 4
    Onebody   basis highest AM E, G, H:  -, -, -
    Solid Harmonics ordering:            Gaussian

*** tstart() called on cmpsrv002
*** at Thu Sep 26 15:25:43 2024

   => Loading Basis Set <=

    Name: THIS_BASIS
    Role: ORBITAL
    Keyword: BASIS
    atoms 1, 4-6 entry H          line    15 file /home/vance/anaconda3/envs/p4env/share/psi4/basis/def2-qzvp.gbs 
    atoms 2      entry I          line  3289 (ECP: line  4841) file /home/vance/anaconda3/envs/p4env/share/psi4/basis/def2-qzvp.gbs 
    atoms 3      entry N          line   242 file /home/vance/anaconda3/envs/p4env/share/psi4/basis/def2-qzvp.gbs 

    !!!  WARNING: ECP capability is in beta. Please check occupations closely.  !!!


         ---------------------------------------------------------
                                   SCF
               by Justin Turney, Rob Parrish, Andy Simmonett
                          and Daniel G. A. Smith
                              RHF Reference
                        4 Threads,   7629 MiB Core
         ---------------------------------------------------------

  ==> Geometry <==

    Molecular point group: c1
    Full point group: C1

    Geometry (in Angstrom), charge = 0, multiplicity = 1:

       Center              X                  Y                   Z               Mass       
    ------------   -----------------  -----------------  -----------------  -----------------
         H           -0.095242720216     0.095793750572     1.120268328483     1.007825032230
         I            0.050657279784    -0.050976249428    -0.596541671517   126.904471900000
      Gh(N)          -0.366752720216     0.369063750572     4.318888328483    14.003074004430
      Gh(H)          -0.076702720216    -0.491526249428     4.765568328483     1.007825032230
      Gh(H)           0.217247279784     1.125323750572     4.652488328483     1.007825032230
      Gh(H)          -1.328232720216     0.561393750572     4.569548328483     1.007825032230

  Running in c1 symmetry.

  Rotational constants: A =      6.16450  B =      0.04435  C =      0.04435 [cm^-1]
  Rotational constants: A = 184807.06373  B =   1329.47049  C =   1329.47046 [MHz]
  Nuclear repulsion =    7.650438279290174

  Charge       = 0
  Multiplicity = 1
  Electrons    = 26
  Nalpha       = 13
  Nbeta        = 13

  ==> Algorithm <==

  SCF Algorithm Type is DF.
  DIIS enabled.
  MOM disabled.
  Fractional occupation disabled.
  Guess Type is SAD.
  Energy threshold   = 1.00e-08
  Density threshold  = 1.00e-08
  Integral threshold = 1.00e-12

  ==> Primary Basis <==

  Basis Set: THIS_BASIS
    Blend: DEF2-QZVP
    Number of shells: 79
    Number of basis functions: 259
    Number of Cartesian functions: 316
    Spherical Harmonics?: true
    Max angular momentum: 4

  Core potential: THIS_BASIS
    Number of shells: 4
    Number of ECP primitives: 29
    Number of ECP core electrons: 28
    Max angular momentum: 3

   => Loading Basis Set <=

    Name: (THIS_BASIS AUX)
    Role: JKFIT
    Keyword: DF_BASIS_SCF
    atoms 1, 4-6 entry H          line    18 file /home/vance/anaconda3/envs/p4env/share/psi4/basis/def2-universal-jkfit.gbs 
    atoms 2      entry I          line  4980 file /home/vance/anaconda3/envs/p4env/share/psi4/basis/def2-universal-jkfit.gbs 
    atoms 3      entry N          line   258 file /home/vance/anaconda3/envs/p4env/share/psi4/basis/def2-universal-jkfit.gbs 

  ==> Integral Setup <==

  ==> DiskDFJK: Density-Fitted J/K Matrices <==

    J tasked:                  Yes
    K tasked:                  Yes
    wK tasked:                  No
    OpenMP threads:              4
    Integrals threads:           4
    Memory [MiB]:             5722
    Algorithm:                Core
    Integral Cache:           LOAD
    Schwarz Cutoff:          1E-12
    Fitting Condition:       1E-10

   => Auxiliary Basis Set <=

  Basis Set: (THIS_BASIS AUX)
    Blend: DEF2-UNIVERSAL-JKFIT
    Number of shells: 95
    Number of basis functions: 367
    Number of Cartesian functions: 482
    Spherical Harmonics?: true
    Max angular momentum: 5

  Minimum eigenvalue in the overlap matrix is 1.6433458104E-04.
  Reciprocal condition number of the overlap matrix is 2.0651573384E-05.
    Using symmetric orthogonalization.

  ==> Pre-Iterations <==

  SCF Guess: Superposition of Atomic Densities via on-the-fly atomic UHF (no occupation information).

   -------------------------
    Irrep   Nso     Nmo    
   -------------------------
     A        259     259 
   -------------------------
    Total     259     259
   -------------------------

  ==> Iterations <==

                           Total Energy        Delta E     RMS |[F,P]|

   @DF-RHF iter SAD:  -294.23079034600772   -2.94231e+02   0.00000e+00 
   @DF-RHF iter   1:  -296.92310260886302   -2.69231e+00   3.20100e-03 ADIIS/DIIS
   @DF-RHF iter   2:  -297.18826611967069   -2.65164e-01   1.84854e-03 ADIIS/DIIS
   @DF-RHF iter   3:  -297.23765585372462   -4.93897e-02   1.35413e-04 ADIIS/DIIS
   @DF-RHF iter   4:  -297.23804966806426   -3.93814e-04   5.84439e-05 DIIS
   @DF-RHF iter   5:  -297.23811501490599   -6.53468e-05   1.66920e-05 DIIS
   @DF-RHF iter   6:  -297.23812595731516   -1.09424e-05   2.61999e-06 DIIS
   @DF-RHF iter   7:  -297.23812684102018   -8.83705e-07   6.15971e-07 DIIS
   @DF-RHF iter   8:  -297.23812689318675   -5.21666e-08   2.09122e-07 DIIS
   @DF-RHF iter   9:  -297.23812689934147   -6.15472e-09   7.43415e-08 DIIS
   @DF-RHF iter  10:  -297.23812690031900   -9.77536e-10   4.07524e-08 DIIS
   @DF-RHF iter  11:  -297.23812690050221   -1.83206e-10   9.33863e-09 DIIS
  Energy and wave function converged.


  ==> Post-Iterations <==

    Orbital Energies [Eh]
    ---------------------

    Doubly Occupied:                                                      

       1A     -7.750319     2A     -5.604375     3A     -5.595329  
       4A     -5.595329     5A     -2.300372     6A     -2.295661  
       7A     -2.295661     8A     -2.285458     9A     -2.285458  
      10A     -0.903173    11A     -0.514576    12A     -0.386728  
      13A     -0.386728  

    Virtual:                                                              

      14A      0.046811    15A      0.085850    16A      0.141693  
      17A      0.141694    18A      0.170283    19A      0.181909  
      20A      0.208229    21A      0.208230    22A      0.266505  
      23A      0.266571    24A      0.266573    25A      0.290747  
      26A      0.290747    27A      0.325450    28A      0.325452  
      29A      0.329925    30A      0.388072    31A      0.445940  
      32A      0.532882    33A      0.532883    34A      0.602127  
      35A      0.649292    36A      0.649292    37A      0.672196  
      38A      0.672196    39A      0.791538    40A      0.795931  
      41A      0.795931    42A      0.810043    43A      0.810043  
      44A      0.855008    45A      0.893457    46A      0.916676  
      47A      0.919891    48A      0.919895    49A      0.948185  
      50A      0.948185    51A      0.949466    52A      0.971459  
      53A      0.971460    54A      0.984036    55A      0.984036  
      56A      0.997937    57A      1.034491    58A      1.034497  
      59A      1.042027    60A      1.078488    61A      1.078490  
      62A      1.093616    63A      1.121134    64A      1.121138  
      65A      1.290122    66A      1.308114    67A      1.371408  
      68A      1.371409    69A      1.439631    70A      1.461371  
      71A      1.461371    72A      1.523012    73A      1.542008  
      74A      1.542008    75A      1.556340    76A      1.556340  
      77A      1.564903    78A      1.564903    79A      1.635089  
      80A      1.919266    81A      1.919266    82A      2.010796  
      83A      2.061788    84A      2.061789    85A      2.096430  
      86A      2.096430    87A      2.109972    88A      2.109972  
      89A      2.125091    90A      2.125091    91A      2.242070  
      92A      2.376773    93A      2.436046    94A      2.436046  
      95A      2.451578    96A      2.451580    97A      2.474252  
      98A      2.535381    99A      2.535382   100A      2.554766  
     101A      2.554766   102A      2.557663   103A      2.678246  
     104A      2.678246   105A      2.692122   106A      2.756836  
     107A      2.830299   108A      2.830301   109A      2.833293  
     110A      2.833294   111A      2.865785   112A      2.865786  
     113A      2.925867   114A      2.925867   115A      2.944379  
     116A      2.944381   117A      2.953574   118A      3.057047  
     119A      3.080013   120A      3.095267   121A      3.095269  
     122A      3.153191   123A      3.160776   124A      3.160778  
     125A      3.276437   126A      3.304758   127A      3.400008  
     128A      3.423029   129A      3.439190   130A      3.439191  
     131A      3.453264   132A      3.453267   133A      3.625514  
     134A      3.720786   135A      3.720786   136A      3.727111  
     137A      3.727112   138A      3.731335   139A      3.731335  
     140A      3.795274   141A      3.795274   142A      3.847357  
     143A      3.938410   144A      3.938413   145A      4.170695  
     146A      4.309541   147A      4.416719   148A      4.422977  
     149A      4.559682   150A      4.559687   151A      5.047205  
     152A      5.047208   153A      5.416518   154A      6.007307  
     155A      6.017974   156A      6.017982   157A      6.045864  
     158A      6.045864   159A      6.163699   160A      6.163699  
     161A      6.445865   162A      6.445867   163A      6.455771  
     164A      6.455771   165A      6.471348   166A      6.471349  
     167A      6.555049   168A      6.555439   169A      6.618519  
     170A      6.757287   171A      6.757292   172A      7.121906  
     173A      7.121910   174A      7.352694   175A      7.394040  
     176A      7.409534   177A      7.409538   178A      7.654625  
     179A      7.778148   180A      7.778149   181A      7.907361  
     182A      7.920530   183A      7.920533   184A      8.125243  
     185A      8.133226   186A      8.133229   187A      8.191729  
     188A      8.191730   189A      8.231149   190A      8.378657  
     191A      8.451822   192A      8.451825   193A      8.564786  
     194A      8.571848   195A      8.571850   196A      8.625305  
     197A      8.625305   198A      8.752388   199A      8.752391  
     200A      8.766012   201A      8.812574   202A      8.893733  
     203A      8.910600   204A      8.910601   205A      8.983925  
     206A      8.983928   207A      8.996022   208A      9.097055  
     209A      9.219162   210A      9.312293   211A      9.312295  
     212A      9.483883   213A      9.491034   214A      9.692399  
     215A      9.692408   216A      9.921603   217A     10.085855  
     218A     10.085862   219A     10.191452   220A     10.191459  
     221A     10.248846   222A     10.663494   223A     10.663496  
     224A     11.036907   225A     11.036912   226A     11.217717  
     227A     11.314166   228A     11.750408   229A     11.750415  
     230A     12.256407   231A     12.256407   232A     12.260815  
     233A     12.260815   234A     12.347502   235A     12.347502  
     236A     12.359431   237A     12.359452   238A     12.616848  
     239A     12.749882   240A     13.697250   241A     13.862957  
     242A     13.862967   243A     14.114562   244A     14.286191  
     245A     14.286202   246A     14.556797   247A     14.573292  
     248A     14.573301   249A     14.729596   250A     15.963760  
     251A     18.197941   252A     18.197954   253A     25.505362  
     254A     40.338207   255A     40.338207   256A     40.422782  
     257A     70.254577   258A     79.036051   259A    318.587568  

    Final Occupation by Irrep:
              A 
    DOCC [    13 ]
    NA   [    13 ]
    NB   [    13 ]

  @DF-RHF Final Energy:  -297.23812690050221

   => Energetics <=

    Nuclear Repulsion Energy =              7.6504382792901735
    One-Electron Energy =                -533.3787860794362814
    Two-Electron Energy =                 228.4902208996439299
    Total Energy =                       -297.2381269005022091

Computation Completed


Properties will be evaluated at   0.000000,   0.000000,   0.000000 [a0]

Properties computed using the SCF density matrix


 Multipole Moments:

 ------------------------------------------------------------------------------------
     Multipole            Electronic (a.u.)      Nuclear  (a.u.)        Total (a.u.)
 ------------------------------------------------------------------------------------

 L = 1.  Multiply by 2.5417464519 to convert [e a0] to [Debye]
 Dipole X            :         -2.2311692            2.2132270           -0.0179422
 Dipole Y            :          2.2453042           -2.2272548            0.0180494
 Dipole Z            :         26.2766369          -26.0655092            0.2111277
 Magnitude           :                                                    0.2126561

 ------------------------------------------------------------------------------------

*** tstop() called on cmpsrv002 at Thu Sep 26 15:25:52 2024
Module time:
	user time   =      12.67 seconds =       0.21 minutes
	system time =       1.34 seconds =       0.02 minutes
	total time  =          9 seconds =       0.15 minutes
Total time:
	user time   =      30.07 seconds =       0.50 minutes
	system time =       3.57 seconds =       0.06 minutes
	total time  =         19 seconds =       0.32 minutes

*** tstart() called on cmpsrv002
*** at Thu Sep 26 15:25:52 2024


  //>>>>>>>>>>>>>>>>>>>>>>>>>>>>>>>>>>>//
  //               DFMP2               //
  //<<<<<<<<<<<<<<<<<<<<<<<<<<<<<<<<<<<//

   => Loading Basis Set <=

    Name: (THIS_BASIS AUX)
    Role: RIFIT
    Keyword: DF_BASIS_MP2
    atoms 1, 4-6 entry H          line    23 file /home/vance/anaconda3/envs/p4env/share/psi4/basis/def2-qzvp-ri.gbs 
    atoms 2      entry I          line  4948 file /home/vance/anaconda3/envs/p4env/share/psi4/basis/def2-qzvpp-ri.gbs 
    atoms 3      entry N          line   337 file /home/vance/anaconda3/envs/p4env/share/psi4/basis/def2-qzvp-ri.gbs 

	 --------------------------------------------------------
	                          DF-MP2                         
	      2nd-Order Density-Fitted Moller-Plesset Theory     
	              RMP2 Wavefunction,   4 Threads             
	                                                         
	        Rob Parrish, Justin Turney, Andy Simmonett,      
	           Ed Hohenstein, and C. David Sherrill          
	 --------------------------------------------------------

   => Auxiliary Basis Set <=

  Basis Set: (THIS_BASIS AUX)
    Blend: DEF2-QZVP-RI + DEF2-QZVPP-RI
    Number of shells: 147
    Number of basis functions: 641
    Number of Cartesian functions: 900
    Spherical Harmonics?: true
    Max angular momentum: 6

	 --------------------------------------------------------
	                 NBF =   259, NAUX =   641
	 --------------------------------------------------------
	   CLASS    FOCC     OCC    AOCC    AVIR     VIR    FVIR
	   PAIRS       0      13      13     246     246       0
	 --------------------------------------------------------

	 Will attempt to load fitting metric from file 97.

	-----------------------------------------------------------
	 ==================> DF-MP2 Energies <==================== 
	-----------------------------------------------------------
	 Reference Energy          =    -297.2381269005022091 [Eh]
	 Singles Energy            =      -0.0000000000000000 [Eh]
	 Same-Spin Energy          =      -0.2871981457709178 [Eh]
	 Opposite-Spin Energy      =      -0.5586033316465137 [Eh]
	 Correlation Energy        =      -0.8458014774174315 [Eh]
	 Total Energy              =    -298.0839283779196194 [Eh]
	-----------------------------------------------------------
	 ================> DF-SCS-MP2 Energies <================== 
	-----------------------------------------------------------
	 SCS Same-Spin Scale       =       0.3333333333333333 [-]
	 SCS Opposite-Spin Scale   =       1.2000000000000000 [-]
	 SCS Same-Spin Energy      =      -0.0957327152569726 [Eh]
	 SCS Opposite-Spin Energy  =      -0.6703239979758163 [Eh]
	 SCS Correlation Energy    =      -0.7660567132327889 [Eh]
	 SCS Total Energy          =    -298.0041836137349947 [Eh]
	-----------------------------------------------------------


*** tstop() called on cmpsrv002 at Thu Sep 26 15:25:55 2024
Module time:
	user time   =       4.04 seconds =       0.07 minutes
	system time =       0.51 seconds =       0.01 minutes
	total time  =          3 seconds =       0.05 minutes
Total time:
	user time   =      34.12 seconds =       0.57 minutes
	system time =       4.08 seconds =       0.07 minutes
	total time  =         22 seconds =       0.37 minutes

  //>>>>>>>>>>>>>>>>>>>>>>>>>>>>>>>>>>>//
  //            Monomer B HF           //
  //<<<<<<<<<<<<<<<<<<<<<<<<<<<<<<<<<<<//

   => Libint2 <=

    Primary   basis highest AM E, G, H:  6, 6, 3
    Auxiliary basis highest AM E, G, H:  7, 7, 4
    Onebody   basis highest AM E, G, H:  -, -, -
    Solid Harmonics ordering:            Gaussian

*** tstart() called on cmpsrv002
*** at Thu Sep 26 15:25:55 2024

   => Loading Basis Set <=

    Name: THIS_BASIS
    Role: ORBITAL
    Keyword: BASIS
    atoms 1, 4-6 entry H          line    15 file /home/vance/anaconda3/envs/p4env/share/psi4/basis/def2-qzvp.gbs 
    atoms 2      entry I          line  3289 (ECP: line  4841) file /home/vance/anaconda3/envs/p4env/share/psi4/basis/def2-qzvp.gbs 
    atoms 3      entry N          line   242 file /home/vance/anaconda3/envs/p4env/share/psi4/basis/def2-qzvp.gbs 

    !!!  WARNING: ECP capability is in beta. Please check occupations closely.  !!!


         ---------------------------------------------------------
                                   SCF
               by Justin Turney, Rob Parrish, Andy Simmonett
                          and Daniel G. A. Smith
                              RHF Reference
                        4 Threads,   7629 MiB Core
         ---------------------------------------------------------

  ==> Geometry <==

    Molecular point group: c1
    Full point group: C1

    Geometry (in Angstrom), charge = 0, multiplicity = 1:

       Center              X                  Y                   Z               Mass       
    ------------   -----------------  -----------------  -----------------  -----------------
      Gh(H)          -0.095242720216     0.095793750572     1.120268328483     1.007825032230
      Gh(I)           0.050657279784    -0.050976249428    -0.596541671517   126.904471900000
         N           -0.366752720216     0.369063750572     4.318888328483    14.003074004430
         H           -0.076702720216    -0.491526249428     4.765568328483     1.007825032230
         H            0.217247279784     1.125323750572     4.652488328483     1.007825032230
         H           -1.328232720216     0.561393750572     4.569548328483     1.007825032230

  Running in c1 symmetry.

  Rotational constants: A =      6.16450  B =      0.04435  C =      0.04435 [cm^-1]
  Rotational constants: A = 184807.06373  B =   1329.47049  C =   1329.47046 [MHz]
  Nuclear repulsion =   11.944033846156769

  Charge       = 0
  Multiplicity = 1
  Electrons    = 10
  Nalpha       = 5
  Nbeta        = 5

  ==> Algorithm <==

  SCF Algorithm Type is DF.
  DIIS enabled.
  MOM disabled.
  Fractional occupation disabled.
  Guess Type is SAD.
  Energy threshold   = 1.00e-08
  Density threshold  = 1.00e-08
  Integral threshold = 1.00e-12

  ==> Primary Basis <==

  Basis Set: THIS_BASIS
    Blend: DEF2-QZVP
    Number of shells: 79
    Number of basis functions: 259
    Number of Cartesian functions: 316
    Spherical Harmonics?: true
    Max angular momentum: 4

  Core potential: THIS_BASIS
    Number of shells: 4
    Number of ECP primitives: 29
    Number of ECP core electrons: 0
    Max angular momentum: 3

   => Loading Basis Set <=

    Name: (THIS_BASIS AUX)
    Role: JKFIT
    Keyword: DF_BASIS_SCF
    atoms 1, 4-6 entry H          line    18 file /home/vance/anaconda3/envs/p4env/share/psi4/basis/def2-universal-jkfit.gbs 
    atoms 2      entry I          line  4980 file /home/vance/anaconda3/envs/p4env/share/psi4/basis/def2-universal-jkfit.gbs 
    atoms 3      entry N          line   258 file /home/vance/anaconda3/envs/p4env/share/psi4/basis/def2-universal-jkfit.gbs 

  ==> Integral Setup <==

  ==> DiskDFJK: Density-Fitted J/K Matrices <==

    J tasked:                  Yes
    K tasked:                  Yes
    wK tasked:                  No
    OpenMP threads:              4
    Integrals threads:           4
    Memory [MiB]:             5722
    Algorithm:                Core
    Integral Cache:           LOAD
    Schwarz Cutoff:          1E-12
    Fitting Condition:       1E-10

   => Auxiliary Basis Set <=

  Basis Set: (THIS_BASIS AUX)
    Blend: DEF2-UNIVERSAL-JKFIT
    Number of shells: 95
    Number of basis functions: 367
    Number of Cartesian functions: 482
    Spherical Harmonics?: true
    Max angular momentum: 5

  Minimum eigenvalue in the overlap matrix is 1.6433458104E-04.
  Reciprocal condition number of the overlap matrix is 2.0651573384E-05.
    Using symmetric orthogonalization.

  ==> Pre-Iterations <==

  SCF Guess: Superposition of Atomic Densities via on-the-fly atomic UHF (no occupation information).

   -------------------------
    Irrep   Nso     Nmo    
   -------------------------
     A        259     259 
   -------------------------
    Total     259     259
   -------------------------

  ==> Iterations <==

                           Total Energy        Delta E     RMS |[F,P]|

   @DF-RHF iter SAD:   -55.65040485975979   -5.56504e+01   0.00000e+00 
   @DF-RHF iter   1:   -56.12998162790097   -4.79577e-01   1.77363e-03 ADIIS/DIIS
   @DF-RHF iter   2:   -56.19692161536446   -6.69400e-02   1.02099e-03 ADIIS/DIIS
   @DF-RHF iter   3:   -56.22368063727807   -2.67590e-02   9.46494e-05 DIIS
   @DF-RHF iter   4:   -56.22430686775060   -6.26230e-04   1.75176e-05 DIIS
   @DF-RHF iter   5:   -56.22432707778931   -2.02100e-05   3.24708e-06 DIIS
   @DF-RHF iter   6:   -56.22432825613820   -1.17835e-06   8.36139e-07 DIIS
   @DF-RHF iter   7:   -56.22432833928245   -8.31443e-08   1.86729e-07 DIIS
   @DF-RHF iter   8:   -56.22432834376475   -4.48230e-09   2.95312e-08 DIIS
   @DF-RHF iter   9:   -56.22432834387554   -1.10795e-10   8.40627e-09 DIIS
  Energy and wave function converged.


  ==> Post-Iterations <==

    Orbital Energies [Eh]
    ---------------------

    Doubly Occupied:                                                      

       1A    -15.537873     2A     -1.137813     3A     -0.631620  
       4A     -0.631619     5A     -0.422710  

    Virtual:                                                              

       6A      0.090652     7A      0.107216     8A      0.140124  
       9A      0.140125    10A      0.153467    11A      0.160788  
      12A      0.160789    13A      0.262502    14A      0.316323  
      15A      0.316323    16A      0.339779    17A      0.420484  
      18A      0.421242    19A      0.421242    20A      0.425423  
      21A      0.425424    22A      0.480189    23A      0.504422  
      24A      0.504423    25A      0.511766    26A      0.522676  
      27A      0.522677    28A      0.526176    29A      0.558952  
      30A      0.558953    31A      0.688051    32A      0.710815  
      33A      0.815126    34A      0.815130    35A      0.867568  
      36A      0.902716    37A      0.917534    38A      0.917541  
      39A      1.019348    40A      1.019348    41A      1.046243  
      42A      1.046243    43A      1.046486    44A      1.046486  
      45A      1.061909    46A      1.079495    47A      1.079496  
      48A      1.157246    49A      1.205512    50A      1.239732  
      51A      1.239734    52A      1.265686    53A      1.290177  
      54A      1.290178    55A      1.327474    56A      1.327798  
      57A      1.327798    58A      1.332758    59A      1.332760  
      60A      1.396322    61A      1.396323    62A      1.397217  
      63A      1.432623    64A      1.432624    65A      1.444072  
      66A      1.563566    67A      1.701486    68A      1.839718  
      69A      1.839719    70A      1.891575    71A      2.216025  
      72A      2.238540    73A      2.238540    74A      2.300675  
      75A      2.300676    76A      2.341292    77A      2.394982  
      78A      2.453836    79A      2.453838    80A      2.488532  
      81A      2.488534    82A      2.540458    83A      2.540460  
      84A      2.600042    85A      2.605873    86A      2.605877  
      87A      2.614414    88A      2.614414    89A      2.614782  
      90A      2.614782    91A      2.626988    92A      2.626989  
      93A      2.751462    94A      2.814908    95A      2.830535  
      96A      2.830536    97A      2.841700    98A      2.841700  
      99A      2.869869   100A      2.914030   101A      2.914031  
     102A      3.025775   103A      3.063282   104A      3.063286  
     105A      3.164259   106A      3.168271   107A      3.168271  
     108A      3.172341   109A      3.172341   110A      3.181731  
     111A      3.181734   112A      3.197258   113A      3.197258  
     114A      3.223274   115A      3.240848   116A      3.338122  
     117A      3.338122   118A      3.390893   119A      3.390893  
     120A      3.406418   121A      3.451641   122A      3.511588  
     123A      3.532427   124A      3.532429   125A      3.547398  
     126A      3.547399   127A      3.615077   128A      3.707352  
     129A      3.707352   130A      3.809272   131A      3.835206  
     132A      3.947740   133A      3.947745   134A      4.205129  
     135A      4.352864   136A      4.352870   137A      4.582093  
     138A      4.624246   139A      4.630791   140A      4.630796  
     141A      5.066622   142A      5.420165   143A      5.420172  
     144A      6.171936   145A      6.171937   146A      6.256160  
     147A      6.256163   148A      6.287073   149A      6.321610  
     150A      6.324142   151A      6.324142   152A      6.364983  
     153A      6.364988   154A      6.485130   155A      6.485130  
     156A      6.780690   157A      6.813005   158A      6.813005  
     159A      6.843488   160A      6.891164   161A      6.951169  
     162A      6.951172   163A      7.125283   164A      7.125286  
     165A      7.258556   166A      7.344692   167A      7.344702  
     168A      7.543162   169A      7.576121   170A      7.584257  
     171A      7.584258   172A      7.688238   173A      7.688240  
     174A      7.768385   175A      7.947416   176A      7.979407  
     177A      7.979409   178A      8.031234   179A      8.124242  
     180A      8.124244   181A      8.279841   182A      8.279844  
     183A      8.305389   184A      8.323813   185A      8.362426  
     186A      8.362430   187A      8.389987   188A      8.521125  
     189A      8.651767   190A      8.683929   191A      8.683934  
     192A      8.769136   193A      8.769136   194A      8.805921  
     195A      8.832712   196A      8.832717   197A      8.898071  
     198A      8.898076   199A      8.945016   200A      9.038845  
     201A      9.038849   202A      9.215671   203A      9.215671  
     204A      9.374958   205A      9.452588   206A      9.544281  
     207A      9.544285   208A      9.813056   209A      9.813058  
     210A      9.863778   211A     10.017829   212A     10.033459  
     213A     10.129773   214A     10.129776   215A     10.316025  
     216A     10.532320   217A     10.532321   218A     10.559080  
     219A     10.583380   220A     10.583380   221A     10.588775  
     222A     10.588775   223A     10.731913   224A     10.731913  
     225A     11.205015   226A     11.589052   227A     11.698270  
     228A     11.698280   229A     12.066735   230A     12.128570  
     231A     12.128576   232A     12.300979   233A     12.300999  
     234A     12.468071   235A     13.836213   236A     13.836213  
     237A     14.252823   238A     14.678357   239A     14.678357  
     240A     14.711522   241A     14.711522   242A     14.833432  
     243A     14.833434   244A     15.238635   245A     15.709591  
     246A     32.641565   247A     32.641565   248A     32.643372  
     249A     32.643372   250A     32.693434   251A     32.693434  
     252A     32.850174   253A     36.234795   254A     39.375384  
     255A     91.286567   256A     91.286567   257A     91.340865  
     258A    167.899871   259A    200.471222  

    Final Occupation by Irrep:
              A 
    DOCC [     5 ]
    NA   [     5 ]
    NB   [     5 ]

  @DF-RHF Final Energy:   -56.22432834387554

   => Energetics <=

    Nuclear Repulsion Energy =             11.9440338461567688
    One-Electron Energy =                 -99.6134515237675373
    Two-Electron Energy =                  31.4450893337352255
    Total Energy =                        -56.2243283438755412

Computation Completed


Properties will be evaluated at   0.000000,   0.000000,   0.000000 [a0]

Properties computed using the SCF density matrix


 Multipole Moments:

 ------------------------------------------------------------------------------------
     Multipole            Electronic (a.u.)      Nuclear  (a.u.)        Total (a.u.)
 ------------------------------------------------------------------------------------

 L = 1.  Multiply by 2.5417464519 to convert [e a0] to [Debye]
 Dipole X            :          7.0454474           -7.0958407           -0.0503933
 Dipole Y            :         -7.0898711            7.1405900            0.0507190
 Dipole Z            :        -82.9691655           83.5633553            0.5941899
 Magnitude           :                                                    0.5984760

 ------------------------------------------------------------------------------------

*** tstop() called on cmpsrv002 at Thu Sep 26 15:26:02 2024
Module time:
	user time   =      11.05 seconds =       0.18 minutes
	system time =       0.92 seconds =       0.02 minutes
	total time  =          7 seconds =       0.12 minutes
Total time:
	user time   =      45.18 seconds =       0.75 minutes
	system time =       5.01 seconds =       0.08 minutes
	total time  =         29 seconds =       0.48 minutes

*** tstart() called on cmpsrv002
*** at Thu Sep 26 15:26:02 2024


  //>>>>>>>>>>>>>>>>>>>>>>>>>>>>>>>>>>>//
  //               DFMP2               //
  //<<<<<<<<<<<<<<<<<<<<<<<<<<<<<<<<<<<//

   => Loading Basis Set <=

    Name: (THIS_BASIS AUX)
    Role: RIFIT
    Keyword: DF_BASIS_MP2
    atoms 1, 4-6 entry H          line    23 file /home/vance/anaconda3/envs/p4env/share/psi4/basis/def2-qzvp-ri.gbs 
    atoms 2      entry I          line  4948 file /home/vance/anaconda3/envs/p4env/share/psi4/basis/def2-qzvpp-ri.gbs 
    atoms 3      entry N          line   337 file /home/vance/anaconda3/envs/p4env/share/psi4/basis/def2-qzvp-ri.gbs 

	 --------------------------------------------------------
	                          DF-MP2                         
	      2nd-Order Density-Fitted Moller-Plesset Theory     
	              RMP2 Wavefunction,   4 Threads             
	                                                         
	        Rob Parrish, Justin Turney, Andy Simmonett,      
	           Ed Hohenstein, and C. David Sherrill          
	 --------------------------------------------------------

   => Auxiliary Basis Set <=

  Basis Set: (THIS_BASIS AUX)
    Blend: DEF2-QZVP-RI + DEF2-QZVPP-RI
    Number of shells: 147
    Number of basis functions: 641
    Number of Cartesian functions: 900
    Spherical Harmonics?: true
    Max angular momentum: 6

	 --------------------------------------------------------
	                 NBF =   259, NAUX =   641
	 --------------------------------------------------------
	   CLASS    FOCC     OCC    AOCC    AVIR     VIR    FVIR
	   PAIRS       0       5       5     254     254       0
	 --------------------------------------------------------

	 Will attempt to load fitting metric from file 97.

	-----------------------------------------------------------
	 ==================> DF-MP2 Energies <==================== 
	-----------------------------------------------------------
	 Reference Energy          =     -56.2243283438755412 [Eh]
	 Singles Energy            =      -0.0000000000000000 [Eh]
	 Same-Spin Energy          =      -0.0581457277145263 [Eh]
	 Opposite-Spin Energy      =      -0.2192469707564612 [Eh]
	 Correlation Energy        =      -0.2773926984709876 [Eh]
	 Total Energy              =     -56.5017210423465315 [Eh]
	-----------------------------------------------------------
	 ================> DF-SCS-MP2 Energies <================== 
	-----------------------------------------------------------
	 SCS Same-Spin Scale       =       0.3333333333333333 [-]
	 SCS Opposite-Spin Scale   =       1.2000000000000000 [-]
	 SCS Same-Spin Energy      =      -0.0193819092381754 [Eh]
	 SCS Opposite-Spin Energy  =      -0.2630963649077535 [Eh]
	 SCS Correlation Energy    =      -0.2824782741459289 [Eh]
	 SCS Total Energy          =     -56.5068066180214714 [Eh]
	-----------------------------------------------------------


*** tstop() called on cmpsrv002 at Thu Sep 26 15:26:06 2024
Module time:
	user time   =       3.59 seconds =       0.06 minutes
	system time =       0.55 seconds =       0.01 minutes
	total time  =          4 seconds =       0.07 minutes
Total time:
	user time   =      48.77 seconds =       0.81 minutes
	system time =       5.56 seconds =       0.09 minutes
	total time  =         33 seconds =       0.55 minutes
  Constructing Basis Sets for SAPT...

   => Loading Basis Set <=

    Name: (THIS_BASIS AUX)
    Role: RIFIT
    Keyword: DF_BASIS_SAPT
    atoms 1, 4-6 entry H          line    23 file /home/vance/anaconda3/envs/p4env/share/psi4/basis/def2-qzvp-ri.gbs 
    atoms 2      entry I          line  4948 file /home/vance/anaconda3/envs/p4env/share/psi4/basis/def2-qzvpp-ri.gbs 
    atoms 3      entry N          line   337 file /home/vance/anaconda3/envs/p4env/share/psi4/basis/def2-qzvp-ri.gbs 

   => Loading Basis Set <=

    Name: (THIS_BASIS AUX)
    Role: JKFIT
    Keyword: DF_BASIS_ELST
    atoms 1, 4-6 entry H          line    18 file /home/vance/anaconda3/envs/p4env/share/psi4/basis/def2-universal-jkfit.gbs 
    atoms 2      entry I          line  4980 file /home/vance/anaconda3/envs/p4env/share/psi4/basis/def2-universal-jkfit.gbs 
    atoms 3      entry N          line   258 file /home/vance/anaconda3/envs/p4env/share/psi4/basis/def2-universal-jkfit.gbs 


  //>>>>>>>>>>>>>>>>>>>>>>>>>>>>>>>>>>>//
  //             SAPT2+DMP2            //
  //<<<<<<<<<<<<<<<<<<<<<<<<<<<<<<<<<<<//


*** tstart() called on cmpsrv002
*** at Thu Sep 26 15:26:07 2024

        SAPT2+  
    Ed Hohenstein
     6 June 2009

      Orbital Information
  --------------------------
    NSO        =       259
    NMO        =       259
    NRI        =       641
    NOCC A     =        13
    NOCC B     =         5
    FOCC A     =         0
    FOCC B     =         0
    NVIR A     =       246
    NVIR B     =       254

    Estimated memory usage: 592.5 MB

    Natural Orbital Cutoff:   1.000E-06
    Disp(T3) Truncation:            Yes
    CCD (vv|vv) Truncation:         Yes
    MBPT T2 Truncation:             Yes

    Monomer A: 148 virtual orbitals dropped
    Monomer B: 116 virtual orbitals dropped

    Elst10,r            =    -0.002774738122 [Eh]
    Exch10 (S^2)        =     0.000564527829 [Eh]
    Exch10              =     0.000564962979 [Eh]
    Ind20,r (A<-B)      =    -0.000279759678 [Eh]
    Ind20,r (B<-A)      =    -0.000133662520 [Eh]
    Ind20,r             =    -0.000413422198 [Eh]
    Exch-Ind20,r (A<-B) =     0.000017842727 [Eh]
    Exch-Ind20,r (B<-A) =     0.000040900217 [Eh]
    Exch-Ind20,r        =     0.000058742944 [Eh]
    Disp20              =    -0.000874427621 [Eh]
    Disp20 (NO)         =    -0.000757956228 [Eh]
    Exch-Disp20         =     0.000060657131 [Eh]
    Elst12,r            =    -0.000051114128 [Eh]
    Exch11              =     0.000029178297 [Eh]
    Exch12              =     0.000018324890 [Eh]
    Ind22               =    -0.000005494022 [Eh]
    Disp21              =     0.000106647664 [Eh]
    Disp22 (SDQ)        =     0.000040124087 [Eh]

    (i =   1 of   5)          4 seconds
    (i =   2 of   5)          8 seconds
    (i =   3 of   5)         11 seconds
    (i =   4 of   5)         15 seconds
    (i =   5 of   5)         19 seconds

    Disp220 (T)         =    -0.000068545618 [Eh]

    (i =   1 of  13)          1 seconds
    (i =   2 of  13)          3 seconds
    (i =   3 of  13)          5 seconds
    (i =   4 of  13)          6 seconds
    (i =   5 of  13)          8 seconds
    (i =   6 of  13)         10 seconds
    (i =   7 of  13)         12 seconds
    (i =   8 of  13)         14 seconds
    (i =   9 of  13)         15 seconds
    (i =  10 of  13)         17 seconds
    (i =  11 of  13)         19 seconds
    (i =  12 of  13)         20 seconds
    (i =  13 of  13)         22 seconds

    Disp202 (T)         =    -0.000072200460 [Eh]

    Disp22 (T)          =    -0.000140746078 [Eh]

    Est. Disp220 (T)    =    -0.000079078684 [Eh]
    Est. Disp202 (T)    =    -0.000083295148 [Eh]

    Est. Disp22 (T)     =    -0.000162373833 [Eh]

    SAPT Results 
  --------------------------------------------------------------------------------------------------------
    Electrostatics                 -2.82585225 [mEh]      -1.77324906 [kcal/mol]      -7.41927406 [kJ/mol]
      Elst10,r                     -2.77473812 [mEh]      -1.74117446 [kcal/mol]      -7.28507394 [kJ/mol]
      Elst12,r                     -0.05111413 [mEh]      -0.03207460 [kcal/mol]      -0.13420012 [kJ/mol]

    Exchange                        0.61246617 [mEh]       0.38432832 [kcal/mol]       1.60802970 [kJ/mol]
      Exch10                        0.56496298 [mEh]       0.35451962 [kcal/mol]       1.48331010 [kJ/mol]
      Exch10(S^2)                   0.56452783 [mEh]       0.35424656 [kcal/mol]       1.48216761 [kJ/mol]
      Exch11(S^2)                   0.02917830 [mEh]       0.01830966 [kcal/mol]       0.07660761 [kJ/mol]
      Exch12(S^2)                   0.01832489 [mEh]       0.01149904 [kcal/mol]       0.04811199 [kJ/mol]

    Induction                      -0.51848781 [mEh]      -0.32535601 [kcal/mol]      -1.36128956 [kJ/mol]
      Ind20,r                      -0.41342220 [mEh]      -0.25942635 [kcal/mol]      -1.08543983 [kJ/mol]
      Ind22                        -0.00549402 [mEh]      -0.00344755 [kcal/mol]      -0.01442455 [kJ/mol]
      Exch-Ind20,r                  0.05874294 [mEh]       0.03686175 [kcal/mol]       0.15422958 [kJ/mol]
      Exch-Ind22                    0.00078064 [mEh]       0.00048986 [kcal/mol]       0.00204958 [kJ/mol]
      delta HF,r (2)               -0.13857331 [mEh]      -0.08695607 [kcal/mol]      -0.36382418 [kJ/mol]
      delta MP2,r (2)              -0.02052187 [mEh]      -0.01287767 [kcal/mol]      -0.05388016 [kJ/mol]

    Dispersion                     -0.82937257 [mEh]      -0.52043915 [kcal/mol]      -2.17751739 [kJ/mol]
      Disp20                       -0.87442762 [mEh]      -0.54871162 [kcal/mol]      -2.29580940 [kJ/mol]
      Disp21                        0.10664766 [mEh]       0.06692242 [kcal/mol]       0.28000340 [kJ/mol]
      Disp22 (SDQ)                  0.04012409 [mEh]       0.02517824 [kcal/mol]       0.10534578 [kJ/mol]
      Disp22 (T)                   -0.14074608 [mEh]      -0.08831950 [kcal/mol]      -0.36952878 [kJ/mol]
      Est. Disp22 (T)              -0.16237383 [mEh]      -0.10189112 [kcal/mol]      -0.42631244 [kJ/mol]
      Exch-Disp20                   0.06065713 [mEh]       0.03806292 [kcal/mol]       0.15925528 [kJ/mol]

  Total HF                         -2.70302771 [mEh]      -1.69617550 [kcal/mol]      -7.09679827 [kJ/mol]
  Total SAPT0                      -3.51679820 [mEh]      -2.20682419 [kcal/mol]      -9.23335240 [kJ/mol]
  Total SAPT2                      -3.52512252 [mEh]      -2.21204778 [kcal/mol]      -9.25520789 [kJ/mol]
  Total SAPT2+                     -3.54072460 [mEh]      -2.22183823 [kcal/mol]      -9.29617116 [kJ/mol]
  Total SAPT2+dMP2                 -3.56124647 [mEh]      -2.23471590 [kcal/mol]      -9.35005132 [kJ/mol]

  Special recipe for scaled SAPT0 (see Manual):
    Electrostatics sSAPT0          -2.77473812 [mEh]      -1.74117446 [kcal/mol]      -7.28507394 [kJ/mol]
    Exchange sSAPT0                 0.56496298 [mEh]       0.35451962 [kcal/mol]       1.48331010 [kJ/mol]
    Induction sSAPT0               -0.49311662 [mEh]      -0.30943535 [kcal/mol]      -1.29467751 [kJ/mol]
    Dispersion sSAPT0              -0.81363011 [mEh]      -0.51056060 [kcal/mol]      -2.13618557 [kJ/mol]
  Total sSAPT0                     -3.51652188 [mEh]      -2.20665079 [kcal/mol]      -9.23262692 [kJ/mol]
  --------------------------------------------------------------------------------------------------------

*** tstop() called on cmpsrv002 at Thu Sep 26 15:31:14 2024
Module time:
	user time   =     355.86 seconds =       5.93 minutes
	system time =      27.14 seconds =       0.45 minutes
	total time  =        307 seconds =       5.12 minutes
Total time:
	user time   =     405.20 seconds =       6.75 minutes
	system time =      32.74 seconds =       0.55 minutes
	total time  =        341 seconds =       5.68 minutes

    Psi4 stopped on: Thursday, 26 September 2024 03:31PM
    Psi4 wall time for execution: 0:05:41.30

*** Psi4 exiting successfully. Buy a developer a beer!
