
    -----------------------------------------------------------------------
          Psi4: An Open-Source Ab Initio Electronic Structure Package
                               Psi4 1.9.1 release

                         Git: Rev {} zzzzzzz 


    D. G. A. Smith, L. A. Burns, A. C. Simmonett, R. M. Parrish,
    M. C. Schieber, R. Galvelis, P. Kraus, H. Kruse, R. Di Remigio,
    A. Alenaizan, A. M. James, S. Lehtola, J. P. Misiewicz, M. Scheurer,
    R. A. Shaw, J. B. Schriber, Y. Xie, Z. L. Glick, D. A. Sirianni,
    J. S. O'Brien, J. M. Waldrop, A. Kumar, E. G. Hohenstein,
    B. P. Pritchard, B. R. Brooks, H. F. Schaefer III, A. Yu. Sokolov,
    K. Patkowski, A. E. DePrince III, U. Bozkaya, R. A. King,
    F. A. Evangelista, J. M. Turney, T. D. Crawford, C. D. Sherrill,
    J. Chem. Phys. 152(18) 184108 (2020). https://doi.org/10.1063/5.0006002

                            Additional Code Authors
    E. T. Seidl, C. L. Janssen, E. F. Valeev, M. L. Leininger,
    J. F. Gonthier, R. M. Richard, H. R. McAlexander, M. Saitow, X. Wang,
    P. Verma, M. H. Lechner, A. Jiang, S. Behnle, A. G. Heide,
    M. F. Herbst, and D. L. Poole

             Previous Authors, Complete List of Code Contributors,
                       and Citations for Specific Modules
    https://github.com/psi4/psi4/blob/master/codemeta.json
    https://github.com/psi4/psi4/graphs/contributors
    http://psicode.org/psi4manual/master/introduction.html#citing-psifour

    -----------------------------------------------------------------------


    Psi4 started on: Thursday, 26 September 2024 03:25PM

    Process ID: 636600
    Host:       cmpsrv002
    PSIDATADIR: /home/vance/anaconda3/envs/p4env/share/psi4
    Memory:     500.0 MiB
    Threads:    8
    
  ==> Input File <==

--------------------------------------------------------------------------
#charge=0 charge_a=0 charge_b=0 selection_a=1-2 selection_b=3-6 scaling=0.8 benchmark_Eint=-5.417 benchmark_unit=kcal/mol group=XH-N
set_num_threads(4)
memory 8 GB
basis this_basis {
    assign    def2-qzvp
}

molecule {
     0 1
    --
     0 1
     H       -0.13083        0.13151       -0.43120
     I        0.01507       -0.01526       -2.14801
    --
     0 1
     N       -0.23943        0.24082        0.84825
     H        0.05062       -0.61977        1.29493
     H        0.34456        0.99708        1.18184
     H       -1.20091        0.43315        1.09891
}

set {
    scf_type                DF
    freeze_core             false
    do_ind_exch_sinf        true
    do_disp_exch_sinf       true
}

nrg = energy('sapt2+dmp2')
--------------------------------------------------------------------------
  Threads set to 4 by Python driver.

  Memory set to   7.451 GiB by Python driver.

Scratch directory: /scratch2/vance/psi4/
   => Loading Basis Set <=

    Name: THIS_BASIS
    Role: ORBITAL
    Keyword: BASIS
    atoms 1, 4-6 entry H          line    15 file /home/vance/anaconda3/envs/p4env/share/psi4/basis/def2-qzvp.gbs 
    atoms 2      entry I          line  3289 (ECP: line  4841) file /home/vance/anaconda3/envs/p4env/share/psi4/basis/def2-qzvp.gbs 
    atoms 3      entry N          line   242 file /home/vance/anaconda3/envs/p4env/share/psi4/basis/def2-qzvp.gbs 

    !!!  WARNING: ECP capability is in beta. Please check occupations closely.  !!!

   => Loading Basis Set <=

    Name: THIS_BASIS
    Role: ORBITAL
    Keyword: BASIS
    atoms 1, 4-6 entry H          line    15 file /home/vance/anaconda3/envs/p4env/share/psi4/basis/def2-qzvp.gbs 
    atoms 2      entry I          line  3289 (ECP: line  4841) file /home/vance/anaconda3/envs/p4env/share/psi4/basis/def2-qzvp.gbs 
    atoms 3      entry N          line   242 file /home/vance/anaconda3/envs/p4env/share/psi4/basis/def2-qzvp.gbs 

    !!!  WARNING: ECP capability is in beta. Please check occupations closely.  !!!


  //>>>>>>>>>>>>>>>>>>>>>>>>>>>>>>>>>>>//
  //              Dimer HF             //
  //<<<<<<<<<<<<<<<<<<<<<<<<<<<<<<<<<<<//

   => Libint2 <=

    Primary   basis highest AM E, G, H:  6, 6, 3
    Auxiliary basis highest AM E, G, H:  7, 7, 4
    Onebody   basis highest AM E, G, H:  -, -, -
    Solid Harmonics ordering:            Gaussian

*** tstart() called on cmpsrv002
*** at Thu Sep 26 15:25:33 2024

   => Loading Basis Set <=

    Name: THIS_BASIS
    Role: ORBITAL
    Keyword: BASIS
    atoms 1, 4-6 entry H          line    15 file /home/vance/anaconda3/envs/p4env/share/psi4/basis/def2-qzvp.gbs 
    atoms 2      entry I          line  3289 (ECP: line  4841) file /home/vance/anaconda3/envs/p4env/share/psi4/basis/def2-qzvp.gbs 
    atoms 3      entry N          line   242 file /home/vance/anaconda3/envs/p4env/share/psi4/basis/def2-qzvp.gbs 

    !!!  WARNING: ECP capability is in beta. Please check occupations closely.  !!!


         ---------------------------------------------------------
                                   SCF
               by Justin Turney, Rob Parrish, Andy Simmonett
                          and Daniel G. A. Smith
                              RHF Reference
                        4 Threads,   7629 MiB Core
         ---------------------------------------------------------

  ==> Geometry <==

    Molecular point group: c1
    Full point group: C1

    Geometry (in Angstrom), charge = 0, multiplicity = 1:

       Center              X                  Y                   Z               Mass       
    ------------   -----------------  -----------------  -----------------  -----------------
         H           -0.114380343508     0.115054791121     1.345721015675     1.007825032230
         I            0.031519656492    -0.031715208879    -0.371088984325   126.904471900000
         N           -0.222980343508     0.224364791121     2.625171015675    14.003074004430
         H            0.067069656492    -0.636225208879     3.071851015675     1.007825032230
         H            0.361009656492     0.980624791121     2.958761015675     1.007825032230
         H           -1.184460343508     0.416694791121     2.875831015675     1.007825032230

  Running in c1 symmetry.

  Rotational constants: A =      6.16453  B =      0.11555  C =      0.11555 [cm^-1]
  Rotational constants: A = 184807.88642  B =   3464.17518  C =   3464.17484 [MHz]
  Nuclear repulsion =   65.346341927815075

  Charge       = 0
  Multiplicity = 1
  Electrons    = 36
  Nalpha       = 18
  Nbeta        = 18

  ==> Algorithm <==

  SCF Algorithm Type is DF.
  DIIS enabled.
  MOM disabled.
  Fractional occupation disabled.
  Guess Type is SAD.
  Energy threshold   = 1.00e-08
  Density threshold  = 1.00e-08
  Integral threshold = 1.00e-12

  ==> Primary Basis <==

  Basis Set: THIS_BASIS
    Blend: DEF2-QZVP
    Number of shells: 79
    Number of basis functions: 259
    Number of Cartesian functions: 316
    Spherical Harmonics?: true
    Max angular momentum: 4

  Core potential: THIS_BASIS
    Number of shells: 4
    Number of ECP primitives: 29
    Number of ECP core electrons: 28
    Max angular momentum: 3

   => Loading Basis Set <=

    Name: (THIS_BASIS AUX)
    Role: JKFIT
    Keyword: DF_BASIS_SCF
    atoms 1, 4-6 entry H          line    18 file /home/vance/anaconda3/envs/p4env/share/psi4/basis/def2-universal-jkfit.gbs 
    atoms 2      entry I          line  4980 file /home/vance/anaconda3/envs/p4env/share/psi4/basis/def2-universal-jkfit.gbs 
    atoms 3      entry N          line   258 file /home/vance/anaconda3/envs/p4env/share/psi4/basis/def2-universal-jkfit.gbs 

  ==> Integral Setup <==

  ==> DiskDFJK: Density-Fitted J/K Matrices <==

    J tasked:                  Yes
    K tasked:                  Yes
    wK tasked:                  No
    OpenMP threads:              4
    Integrals threads:           4
    Memory [MiB]:             5722
    Algorithm:                Core
    Integral Cache:           SAVE
    Schwarz Cutoff:          1E-12
    Fitting Condition:       1E-10

   => Auxiliary Basis Set <=

  Basis Set: (THIS_BASIS AUX)
    Blend: DEF2-UNIVERSAL-JKFIT
    Number of shells: 95
    Number of basis functions: 367
    Number of Cartesian functions: 482
    Spherical Harmonics?: true
    Max angular momentum: 5

  Minimum eigenvalue in the overlap matrix is 9.1989369073E-05.
  Reciprocal condition number of the overlap matrix is 1.0102950527E-05.
    Using symmetric orthogonalization.

  ==> Pre-Iterations <==

  SCF Guess: Superposition of Atomic Densities via on-the-fly atomic UHF (no occupation information).

   -------------------------
    Irrep   Nso     Nmo    
   -------------------------
     A        259     259 
   -------------------------
    Total     259     259
   -------------------------

  ==> Iterations <==

                           Total Energy        Delta E     RMS |[F,P]|

   @DF-RHF iter SAD:  -350.39758445682048   -3.50398e+02   0.00000e+00 
   @DF-RHF iter   1:  -352.98130676650430   -2.58372e+00   3.75481e-03 ADIIS/DIIS
   @DF-RHF iter   2:  -353.38662632379658   -4.05320e-01   2.16268e-03 ADIIS/DIIS
   @DF-RHF iter   3:  -353.45905683154939   -7.24305e-02   1.72664e-04 ADIIS/DIIS
   @DF-RHF iter   4:  -353.46062987760854   -1.57305e-03   5.60595e-05 DIIS
   @DF-RHF iter   5:  -353.46082440652276   -1.94529e-04   2.47091e-05 DIIS
   @DF-RHF iter   6:  -353.46084755713366   -2.31506e-05   6.66100e-06 DIIS
   @DF-RHF iter   7:  -353.46085056646763   -3.00933e-06   2.24635e-06 DIIS
   @DF-RHF iter   8:  -353.46085078602067   -2.19553e-07   6.19485e-07 DIIS
   @DF-RHF iter   9:  -353.46085083493000   -4.89093e-08   1.51473e-07 DIIS
   @DF-RHF iter  10:  -353.46085083761255   -2.68255e-09   3.15090e-08 DIIS
   @DF-RHF iter  11:  -353.46085083773096   -1.18405e-10   6.84701e-09 DIIS
  Energy and wave function converged.


  ==> Post-Iterations <==

    Orbital Energies [Eh]
    ---------------------

    Doubly Occupied:                                                      

       1A    -15.644511     2A     -7.663098     3A     -5.513297  
       4A     -5.510487     5A     -5.510487     6A     -2.208865  
       7A     -2.206528     8A     -2.206528     9A     -2.203562  
      10A     -2.203562    11A     -1.258921    12A     -0.849230  
      13A     -0.735571    14A     -0.735568    15A     -0.655341  
      16A     -0.350538    17A     -0.322624    18A     -0.322624  

    Virtual:                                                              

      19A      0.060578    20A      0.120613    21A      0.120615  
      22A      0.176271    23A      0.192488    24A      0.236625  
      25A      0.236629    26A      0.252531    27A      0.252532  
      28A      0.277829    29A      0.326004    30A      0.326010  
      31A      0.335803    32A      0.358671    33A      0.358691  
      34A      0.385841    35A      0.453737    36A      0.453741  
      37A      0.477311    38A      0.527802    39A      0.527812  
      40A      0.617841    41A      0.731291    42A      0.758518  
      43A      0.758519    44A      0.801890    45A      0.801917  
      46A      0.802848    47A      0.828164    48A      0.864386  
      49A      0.867094    50A      0.873686    51A      0.873695  
      52A      0.887141    53A      0.960187    54A      0.960188  
      55A      0.998106    56A      1.002740    57A      1.002746  
      58A      1.030205    59A      1.030210    60A      1.068148  
      61A      1.068155    62A      1.084542    63A      1.084560  
      64A      1.116150    65A      1.121689    66A      1.175073  
      67A      1.175078    68A      1.246287    69A      1.309894  
      70A      1.312034    71A      1.312039    72A      1.332360  
      73A      1.453628    74A      1.519839    75A      1.519860  
      76A      1.625603    77A      1.627146    78A      1.627147  
      79A      1.627771    80A      1.659528    81A      1.659530  
      82A      1.738052    83A      1.862249    84A      1.862270  
      85A      1.968931    86A      2.022381    87A      2.022388  
      88A      2.074226    89A      2.164601    90A      2.165818  
      91A      2.172983    92A      2.172983    93A      2.186724  
      94A      2.186745    95A      2.263768    96A      2.279182  
      97A      2.309341    98A      2.352804    99A      2.352826  
     100A      2.379709   101A      2.379743   102A      2.495175  
     103A      2.495188   104A      2.546590   105A      2.546630  
     106A      2.600182   107A      2.600185   108A      2.656487  
     109A      2.686886   110A      2.689439   111A      2.689446  
     112A      2.838747   113A      2.838798   114A      2.879074  
     115A      2.897684   116A      2.994259   117A      2.994264  
     118A      3.009920   119A      3.009933   120A      3.019143  
     121A      3.106690   122A      3.106694   123A      3.145785  
     124A      3.152958   125A      3.152991   126A      3.235954  
     127A      3.281048   128A      3.281138   129A      3.351574  
     130A      3.376717   131A      3.376781   132A      3.386175  
     133A      3.465676   134A      3.533937   135A      3.533953  
     136A      3.726186   137A      3.805705   138A      3.805725  
     139A      3.806892   140A      3.809763   141A      3.826922  
     142A      3.826925   143A      3.863763   144A      3.882812  
     145A      3.882831   146A      4.050331   147A      4.075497  
     148A      4.125419   149A      4.263917   150A      4.263949  
     151A      4.425625   152A      4.425631   153A      4.579071  
     154A      4.579082   155A      4.627626   156A      5.150109  
     157A      5.423531   158A      5.423585   159A      5.588406  
     160A      6.068060   161A      6.068089   162A      6.079239  
     163A      6.082161   164A      6.188948   165A      6.188957  
     166A      6.231550   167A      6.266701   168A      6.266735  
     169A      6.432036   170A      6.470769   171A      6.470823  
     172A      6.690538   173A      6.751316   174A      7.026087  
     175A      7.026104   176A      7.122799   177A      7.122895  
     178A      7.148419   179A      7.205243   180A      7.378694  
     181A      7.378747   182A      7.427773   183A      7.549118  
     184A      7.549140   185A      7.607975   186A      7.611811  
     187A      7.611839   188A      7.756074   189A      7.756133  
     190A      7.898823   191A      7.986253   192A      7.986265  
     193A      8.001152   194A      8.067242   195A      8.067305  
     196A      8.227008   197A      8.296867   198A      8.296879  
     199A      8.416645   200A      8.416781   201A      8.418221  
     202A      8.450964   203A      8.518490   204A      8.519980  
     205A      8.519988   206A      8.606596   207A      8.640720  
     208A      8.640762   209A      8.661251   210A      8.867628  
     211A      8.867640   212A      8.919291   213A      8.997884  
     214A      8.997901   215A      9.079302   216A      9.113984  
     217A      9.114063   218A      9.248235   219A      9.248245  
     220A      9.551779   221A      9.788252   222A      9.788268  
     223A      9.871991   224A     10.094923   225A     10.094950  
     226A     10.213094   227A     10.279988   228A     10.280150  
     229A     10.345061   230A     10.615770   231A     10.615825  
     232A     10.801746   233A     11.494695   234A     11.675483  
     235A     11.675507   236A     11.803842   237A     12.068491  
     238A     12.068503   239A     12.250875   240A     12.250900  
     241A     12.341831   242A     12.342439   243A     12.349687  
     244A     12.349690   245A     12.381241   246A     12.443180  
     247A     12.484629   248A     12.484635   249A     12.884373  
     250A     14.822771   251A     14.822804   252A     15.035334  
     253A     15.760820   254A     39.462274   255A     40.426630  
     256A     40.426630   257A     40.618708   258A     79.347314  
     259A    200.629588  

    Final Occupation by Irrep:
              A 
    DOCC [    18 ]
    NA   [    18 ]
    NB   [    18 ]

  @DF-RHF Final Energy:  -353.46085083773096

   => Energetics <=

    Nuclear Repulsion Energy =             65.3463419278150752
    One-Electron Energy =                -725.4116988276297207
    Two-Electron Energy =                 306.6045060620837148
    Total Energy =                       -353.4608508377309590

Computation Completed


Properties will be evaluated at   0.000000,   0.000000,   0.000000 [a0]

Properties computed using the SCF density matrix


 Multipole Moments:

 ------------------------------------------------------------------------------------
     Multipole            Electronic (a.u.)      Nuclear  (a.u.)        Total (a.u.)
 ------------------------------------------------------------------------------------

 L = 1.  Multiply by 2.5417464519 to convert [e a0] to [Debye]
 Dipole X            :          2.8596024           -3.1060150           -0.2464127
 Dipole Y            :         -2.8773285            3.1252715            0.2479431
 Dipole Z            :        -33.6669554           36.5683483            2.9013930
 Magnitude           :                                                    2.9223751

 ------------------------------------------------------------------------------------

*** tstop() called on cmpsrv002 at Thu Sep 26 15:25:39 2024
Module time:
	user time   =      12.94 seconds =       0.22 minutes
	system time =       1.21 seconds =       0.02 minutes
	total time  =          6 seconds =       0.10 minutes
Total time:
	user time   =      12.94 seconds =       0.22 minutes
	system time =       1.21 seconds =       0.02 minutes
	total time  =          6 seconds =       0.10 minutes

*** tstart() called on cmpsrv002
*** at Thu Sep 26 15:25:39 2024


  //>>>>>>>>>>>>>>>>>>>>>>>>>>>>>>>>>>>//
  //               DFMP2               //
  //<<<<<<<<<<<<<<<<<<<<<<<<<<<<<<<<<<<//

   => Loading Basis Set <=

    Name: (THIS_BASIS AUX)
    Role: RIFIT
    Keyword: DF_BASIS_MP2
    atoms 1, 4-6 entry H          line    23 file /home/vance/anaconda3/envs/p4env/share/psi4/basis/def2-qzvp-ri.gbs 
    atoms 2      entry I          line  4948 file /home/vance/anaconda3/envs/p4env/share/psi4/basis/def2-qzvpp-ri.gbs 
    atoms 3      entry N          line   337 file /home/vance/anaconda3/envs/p4env/share/psi4/basis/def2-qzvp-ri.gbs 

	 --------------------------------------------------------
	                          DF-MP2                         
	      2nd-Order Density-Fitted Moller-Plesset Theory     
	              RMP2 Wavefunction,   4 Threads             
	                                                         
	        Rob Parrish, Justin Turney, Andy Simmonett,      
	           Ed Hohenstein, and C. David Sherrill          
	 --------------------------------------------------------

   => Auxiliary Basis Set <=

  Basis Set: (THIS_BASIS AUX)
    Blend: DEF2-QZVP-RI + DEF2-QZVPP-RI
    Number of shells: 147
    Number of basis functions: 641
    Number of Cartesian functions: 900
    Spherical Harmonics?: true
    Max angular momentum: 6

	 --------------------------------------------------------
	                 NBF =   259, NAUX =   641
	 --------------------------------------------------------
	   CLASS    FOCC     OCC    AOCC    AVIR     VIR    FVIR
	   PAIRS       0      18      18     241     241       0
	 --------------------------------------------------------

	 Will save fitting metric to file 97.

	-----------------------------------------------------------
	 ==================> DF-MP2 Energies <==================== 
	-----------------------------------------------------------
	 Reference Energy          =    -353.4608508377309590 [Eh]
	 Singles Energy            =      -0.0000000000000000 [Eh]
	 Same-Spin Energy          =      -0.3561265890663135 [Eh]
	 Opposite-Spin Energy      =      -0.7845600165031967 [Eh]
	 Correlation Energy        =      -1.1406866055695102 [Eh]
	 Total Energy              =    -354.6015374433004581 [Eh]
	-----------------------------------------------------------
	 ================> DF-SCS-MP2 Energies <================== 
	-----------------------------------------------------------
	 SCS Same-Spin Scale       =       0.3333333333333333 [-]
	 SCS Opposite-Spin Scale   =       1.2000000000000000 [-]
	 SCS Same-Spin Energy      =      -0.1187088630221045 [Eh]
	 SCS Opposite-Spin Energy  =      -0.9414720198038360 [Eh]
	 SCS Correlation Energy    =      -1.0601808828259405 [Eh]
	 SCS Total Energy          =    -354.5210317205568913 [Eh]
	-----------------------------------------------------------


*** tstop() called on cmpsrv002 at Thu Sep 26 15:25:43 2024
Module time:
	user time   =       5.34 seconds =       0.09 minutes
	system time =       0.85 seconds =       0.01 minutes
	total time  =          4 seconds =       0.07 minutes
Total time:
	user time   =      18.28 seconds =       0.30 minutes
	system time =       2.06 seconds =       0.03 minutes
	total time  =         10 seconds =       0.17 minutes

  //>>>>>>>>>>>>>>>>>>>>>>>>>>>>>>>>>>>//
  //            Monomer A HF           //
  //<<<<<<<<<<<<<<<<<<<<<<<<<<<<<<<<<<<//

   => Libint2 <=

    Primary   basis highest AM E, G, H:  6, 6, 3
    Auxiliary basis highest AM E, G, H:  7, 7, 4
    Onebody   basis highest AM E, G, H:  -, -, -
    Solid Harmonics ordering:            Gaussian

*** tstart() called on cmpsrv002
*** at Thu Sep 26 15:25:43 2024

   => Loading Basis Set <=

    Name: THIS_BASIS
    Role: ORBITAL
    Keyword: BASIS
    atoms 1, 4-6 entry H          line    15 file /home/vance/anaconda3/envs/p4env/share/psi4/basis/def2-qzvp.gbs 
    atoms 2      entry I          line  3289 (ECP: line  4841) file /home/vance/anaconda3/envs/p4env/share/psi4/basis/def2-qzvp.gbs 
    atoms 3      entry N          line   242 file /home/vance/anaconda3/envs/p4env/share/psi4/basis/def2-qzvp.gbs 

    !!!  WARNING: ECP capability is in beta. Please check occupations closely.  !!!


         ---------------------------------------------------------
                                   SCF
               by Justin Turney, Rob Parrish, Andy Simmonett
                          and Daniel G. A. Smith
                              RHF Reference
                        4 Threads,   7629 MiB Core
         ---------------------------------------------------------

  ==> Geometry <==

    Molecular point group: c1
    Full point group: C1

    Geometry (in Angstrom), charge = 0, multiplicity = 1:

       Center              X                  Y                   Z               Mass       
    ------------   -----------------  -----------------  -----------------  -----------------
         H           -0.114380343508     0.115054791121     1.345721015675     1.007825032230
         I            0.031519656492    -0.031715208879    -0.371088984325   126.904471900000
      Gh(N)          -0.222980343508     0.224364791121     2.625171015675    14.003074004430
      Gh(H)           0.067069656492    -0.636225208879     3.071851015675     1.007825032230
      Gh(H)           0.361009656492     0.980624791121     2.958761015675     1.007825032230
      Gh(H)          -1.184460343508     0.416694791121     2.875831015675     1.007825032230

  Running in c1 symmetry.

  Rotational constants: A =      6.16453  B =      0.11555  C =      0.11555 [cm^-1]
  Rotational constants: A = 184807.88642  B =   3464.17518  C =   3464.17484 [MHz]
  Nuclear repulsion =    7.650438279290174

  Charge       = 0
  Multiplicity = 1
  Electrons    = 26
  Nalpha       = 13
  Nbeta        = 13

  ==> Algorithm <==

  SCF Algorithm Type is DF.
  DIIS enabled.
  MOM disabled.
  Fractional occupation disabled.
  Guess Type is SAD.
  Energy threshold   = 1.00e-08
  Density threshold  = 1.00e-08
  Integral threshold = 1.00e-12

  ==> Primary Basis <==

  Basis Set: THIS_BASIS
    Blend: DEF2-QZVP
    Number of shells: 79
    Number of basis functions: 259
    Number of Cartesian functions: 316
    Spherical Harmonics?: true
    Max angular momentum: 4

  Core potential: THIS_BASIS
    Number of shells: 4
    Number of ECP primitives: 29
    Number of ECP core electrons: 28
    Max angular momentum: 3

   => Loading Basis Set <=

    Name: (THIS_BASIS AUX)
    Role: JKFIT
    Keyword: DF_BASIS_SCF
    atoms 1, 4-6 entry H          line    18 file /home/vance/anaconda3/envs/p4env/share/psi4/basis/def2-universal-jkfit.gbs 
    atoms 2      entry I          line  4980 file /home/vance/anaconda3/envs/p4env/share/psi4/basis/def2-universal-jkfit.gbs 
    atoms 3      entry N          line   258 file /home/vance/anaconda3/envs/p4env/share/psi4/basis/def2-universal-jkfit.gbs 

  ==> Integral Setup <==

  ==> DiskDFJK: Density-Fitted J/K Matrices <==

    J tasked:                  Yes
    K tasked:                  Yes
    wK tasked:                  No
    OpenMP threads:              4
    Integrals threads:           4
    Memory [MiB]:             5722
    Algorithm:                Core
    Integral Cache:           LOAD
    Schwarz Cutoff:          1E-12
    Fitting Condition:       1E-10

   => Auxiliary Basis Set <=

  Basis Set: (THIS_BASIS AUX)
    Blend: DEF2-UNIVERSAL-JKFIT
    Number of shells: 95
    Number of basis functions: 367
    Number of Cartesian functions: 482
    Spherical Harmonics?: true
    Max angular momentum: 5

  Minimum eigenvalue in the overlap matrix is 9.1989369073E-05.
  Reciprocal condition number of the overlap matrix is 1.0102950527E-05.
    Using symmetric orthogonalization.

  ==> Pre-Iterations <==

  SCF Guess: Superposition of Atomic Densities via on-the-fly atomic UHF (no occupation information).

   -------------------------
    Irrep   Nso     Nmo    
   -------------------------
     A        259     259 
   -------------------------
    Total     259     259
   -------------------------

  ==> Iterations <==

                           Total Energy        Delta E     RMS |[F,P]|

   @DF-RHF iter SAD:  -294.17209085966783   -2.94172e+02   0.00000e+00 
   @DF-RHF iter   1:  -296.91078615139975   -2.73870e+00   3.23636e-03 ADIIS/DIIS
   @DF-RHF iter   2:  -297.18385056754573   -2.73064e-01   1.89879e-03 ADIIS/DIIS
   @DF-RHF iter   3:  -297.23742547209429   -5.35749e-02   1.56257e-04 ADIIS/DIIS
   @DF-RHF iter   4:  -297.23801078643766   -5.85314e-04   7.10725e-05 DIIS
   @DF-RHF iter   5:  -297.23812728123431   -1.16495e-04   1.96093e-05 DIIS
   @DF-RHF iter   6:  -297.23815039001738   -2.31088e-05   3.74242e-06 DIIS
   @DF-RHF iter   7:  -297.23815237094897   -1.98093e-06   6.87391e-07 DIIS
   @DF-RHF iter   8:  -297.23815242532339   -5.43744e-08   1.97845e-07 DIIS
   @DF-RHF iter   9:  -297.23815242948177   -4.15838e-09   6.17872e-08 DIIS
   @DF-RHF iter  10:  -297.23815243002792   -5.46152e-10   3.54835e-08 DIIS
   @DF-RHF iter  11:  -297.23815243015355   -1.25624e-10   1.07482e-08 DIIS
   @DF-RHF iter  12:  -297.23815243018140   -2.78533e-11   1.71199e-09 DIIS
  Energy and wave function converged.


  ==> Post-Iterations <==

    Orbital Energies [Eh]
    ---------------------

    Doubly Occupied:                                                      

       1A     -7.750322     2A     -5.604369     3A     -5.595339  
       4A     -5.595339     5A     -2.300371     6A     -2.295663  
       7A     -2.295663     8A     -2.285472     9A     -2.285472  
      10A     -0.903177    11A     -0.514543    12A     -0.386740  
      13A     -0.386740  

    Virtual:                                                              

      14A      0.047082    15A      0.098563    16A      0.135874  
      17A      0.135875    18A      0.173333    19A      0.213785  
      20A      0.216969    21A      0.216969    22A      0.256753  
      23A      0.256756    24A      0.292103    25A      0.292105  
      26A      0.317266    27A      0.338990    28A      0.372485  
      29A      0.372503    30A      0.439590    31A      0.529191  
      32A      0.529206    33A      0.565570    34A      0.632384  
      35A      0.632386    36A      0.724939    37A      0.769403  
      38A      0.769411    39A      0.787275    40A      0.787278  
      41A      0.802571    42A      0.809663    43A      0.821171  
      44A      0.873382    45A      0.914180    46A      0.914187  
      47A      0.919765    48A      0.941839    49A      0.950818  
      50A      0.950819    51A      0.983423    52A      0.983425  
      53A      0.988050    54A      1.010543    55A      1.010547  
      56A      1.098800    57A      1.103925    58A      1.103993  
      59A      1.116486    60A      1.125789    61A      1.125818  
      62A      1.295391    63A      1.295394    64A      1.303991  
      65A      1.369475    66A      1.369477    67A      1.371700  
      68A      1.455766    69A      1.556361    70A      1.556719  
      71A      1.556723    72A      1.561878    73A      1.573665  
      74A      1.573679    75A      1.668687    76A      1.675904  
      77A      1.675906    78A      1.783745    79A      1.967016  
      80A      1.967521    81A      1.967524    82A      2.096363  
      83A      2.098069    84A      2.109922    85A      2.109922  
      86A      2.174735    87A      2.174757    88A      2.211703  
      89A      2.319246    90A      2.319255    91A      2.330157  
      92A      2.426411    93A      2.426457    94A      2.462243  
      95A      2.523986    96A      2.523995    97A      2.526290  
      98A      2.526320    99A      2.668628   100A      2.678310  
     101A      2.689599   102A      2.689605   103A      2.791618  
     104A      2.791625   105A      2.854070   106A      2.867414  
     107A      2.867416   108A      2.919446   109A      2.919448  
     110A      2.942406   111A      2.949885   112A      2.949918  
     113A      3.066821   114A      3.066863   115A      3.076707  
     116A      3.158808   117A      3.191927   118A      3.214657  
     119A      3.214722   120A      3.231970   121A      3.232028  
     122A      3.358817   123A      3.411515   124A      3.455482  
     125A      3.455492   126A      3.457747   127A      3.506296  
     128A      3.506319   129A      3.587242   130A      3.666432  
     131A      3.666437   132A      3.731477   133A      3.732699  
     134A      3.739637   135A      3.739652   136A      3.859778  
     137A      3.869136   138A      3.869185   139A      3.931276  
     140A      3.959797   141A      3.959799   142A      4.235173  
     143A      4.356719   144A      4.358071   145A      4.507313  
     146A      4.507352   147A      4.515019   148A      4.573986  
     149A      4.574005   150A      5.057498   151A      5.057522  
     152A      5.265520   153A      5.647303   154A      5.999791  
     155A      5.999814   156A      6.116700   157A      6.127593  
     158A      6.301628   159A      6.301657   160A      6.483477  
     161A      6.483482   162A      6.545334   163A      6.676809  
     164A      6.676818   165A      6.752817   166A      6.781764  
     167A      6.781828   168A      7.256135   169A      7.256140  
     170A      7.281914   171A      7.378819   172A      7.410144  
     173A      7.410256   174A      7.537216   175A      7.673557  
     176A      7.818043   177A      7.818084   178A      7.906177  
     179A      7.915782   180A      7.915803   181A      8.106484  
     182A      8.106493   183A      8.114137   184A      8.181668  
     185A      8.321603   186A      8.321615   187A      8.387833  
     188A      8.454154   189A      8.454231   190A      8.684026  
     191A      8.684080   192A      8.740583   193A      8.740624  
     194A      8.810450   195A      8.829302   196A      8.876139  
     197A      8.876183   198A      8.937501   199A      8.937580  
     200A      8.987322   201A      9.027523   202A      9.124986  
     203A      9.124995   204A      9.133846   205A      9.330362  
     206A      9.383113   207A      9.383128   208A      9.519478  
     209A      9.520664   210A      9.603413   211A      9.603443  
     212A      9.921908   213A      9.977338   214A      9.977408  
     215A     10.023781   216A     10.216505   217A     10.216537  
     218A     10.315590   219A     10.475726   220A     10.475757  
     221A     11.087816   222A     11.087874   223A     11.153701  
     224A     11.153718   225A     11.191041   226A     11.458203  
     227A     11.834012   228A     11.834031   229A     12.212813  
     230A     12.260854   231A     12.261494   232A     12.261496  
     233A     12.261513   234A     12.383134   235A     12.383140  
     236A     12.471954   237A     12.471978   238A     12.670008  
     239A     13.072498   240A     13.677358   241A     13.871598  
     242A     13.871613   243A     14.202785   244A     14.335130  
     245A     14.335145   246A     14.611405   247A     14.611421  
     248A     14.936315   249A     15.151833   250A     16.631094  
     251A     18.324877   252A     18.324913   253A     25.619809  
     254A     40.340244   255A     40.340244   256A     40.522537  
     257A     70.396145   258A     79.261864   259A    318.828404  

    Final Occupation by Irrep:
              A 
    DOCC [    13 ]
    NA   [    13 ]
    NB   [    13 ]

  @DF-RHF Final Energy:  -297.23815243018140

   => Energetics <=

    Nuclear Repulsion Energy =              7.6504382792901735
    One-Electron Energy =                -533.3787619891531904
    Two-Electron Energy =                 228.4901712796816469
    Total Energy =                       -297.2381524301814011

Computation Completed


Properties will be evaluated at   0.000000,   0.000000,   0.000000 [a0]

Properties computed using the SCF density matrix


 Multipole Moments:

 ------------------------------------------------------------------------------------
     Multipole            Electronic (a.u.)      Nuclear  (a.u.)        Total (a.u.)
 ------------------------------------------------------------------------------------

 L = 1.  Multiply by 2.5417464519 to convert [e a0] to [Debye]
 Dipole X            :         -1.2905160            1.2729404           -0.0175756
 Dipole Y            :          1.2985847           -1.2809044            0.0176803
 Dipole Z            :         15.1951782          -14.9883696            0.2068086
 Magnitude           :                                                    0.2083058

 ------------------------------------------------------------------------------------

*** tstop() called on cmpsrv002 at Thu Sep 26 15:25:51 2024
Module time:
	user time   =      11.46 seconds =       0.19 minutes
	system time =       1.12 seconds =       0.02 minutes
	total time  =          8 seconds =       0.13 minutes
Total time:
	user time   =      29.76 seconds =       0.50 minutes
	system time =       3.18 seconds =       0.05 minutes
	total time  =         18 seconds =       0.30 minutes

*** tstart() called on cmpsrv002
*** at Thu Sep 26 15:25:51 2024


  //>>>>>>>>>>>>>>>>>>>>>>>>>>>>>>>>>>>//
  //               DFMP2               //
  //<<<<<<<<<<<<<<<<<<<<<<<<<<<<<<<<<<<//

   => Loading Basis Set <=

    Name: (THIS_BASIS AUX)
    Role: RIFIT
    Keyword: DF_BASIS_MP2
    atoms 1, 4-6 entry H          line    23 file /home/vance/anaconda3/envs/p4env/share/psi4/basis/def2-qzvp-ri.gbs 
    atoms 2      entry I          line  4948 file /home/vance/anaconda3/envs/p4env/share/psi4/basis/def2-qzvpp-ri.gbs 
    atoms 3      entry N          line   337 file /home/vance/anaconda3/envs/p4env/share/psi4/basis/def2-qzvp-ri.gbs 

	 --------------------------------------------------------
	                          DF-MP2                         
	      2nd-Order Density-Fitted Moller-Plesset Theory     
	              RMP2 Wavefunction,   4 Threads             
	                                                         
	        Rob Parrish, Justin Turney, Andy Simmonett,      
	           Ed Hohenstein, and C. David Sherrill          
	 --------------------------------------------------------

   => Auxiliary Basis Set <=

  Basis Set: (THIS_BASIS AUX)
    Blend: DEF2-QZVP-RI + DEF2-QZVPP-RI
    Number of shells: 147
    Number of basis functions: 641
    Number of Cartesian functions: 900
    Spherical Harmonics?: true
    Max angular momentum: 6

	 --------------------------------------------------------
	                 NBF =   259, NAUX =   641
	 --------------------------------------------------------
	   CLASS    FOCC     OCC    AOCC    AVIR     VIR    FVIR
	   PAIRS       0      13      13     246     246       0
	 --------------------------------------------------------

	 Will attempt to load fitting metric from file 97.

	-----------------------------------------------------------
	 ==================> DF-MP2 Energies <==================== 
	-----------------------------------------------------------
	 Reference Energy          =    -297.2381524301814011 [Eh]
	 Singles Energy            =      -0.0000000000000000 [Eh]
	 Same-Spin Energy          =      -0.2875602763738773 [Eh]
	 Opposite-Spin Energy      =      -0.5597790213476670 [Eh]
	 Correlation Energy        =      -0.8473392977215443 [Eh]
	 Total Energy              =    -298.0854917279029337 [Eh]
	-----------------------------------------------------------
	 ================> DF-SCS-MP2 Energies <================== 
	-----------------------------------------------------------
	 SCS Same-Spin Scale       =       0.3333333333333333 [-]
	 SCS Opposite-Spin Scale   =       1.2000000000000000 [-]
	 SCS Same-Spin Energy      =      -0.0958534254579591 [Eh]
	 SCS Opposite-Spin Energy  =      -0.6717348256172003 [Eh]
	 SCS Correlation Energy    =      -0.7675882510751594 [Eh]
	 SCS Total Energy          =    -298.0057406812565546 [Eh]
	-----------------------------------------------------------


*** tstop() called on cmpsrv002 at Thu Sep 26 15:25:53 2024
Module time:
	user time   =       3.48 seconds =       0.06 minutes
	system time =       0.51 seconds =       0.01 minutes
	total time  =          2 seconds =       0.03 minutes
Total time:
	user time   =      33.24 seconds =       0.55 minutes
	system time =       3.69 seconds =       0.06 minutes
	total time  =         20 seconds =       0.33 minutes

  //>>>>>>>>>>>>>>>>>>>>>>>>>>>>>>>>>>>//
  //            Monomer B HF           //
  //<<<<<<<<<<<<<<<<<<<<<<<<<<<<<<<<<<<//

   => Libint2 <=

    Primary   basis highest AM E, G, H:  6, 6, 3
    Auxiliary basis highest AM E, G, H:  7, 7, 4
    Onebody   basis highest AM E, G, H:  -, -, -
    Solid Harmonics ordering:            Gaussian

*** tstart() called on cmpsrv002
*** at Thu Sep 26 15:25:53 2024

   => Loading Basis Set <=

    Name: THIS_BASIS
    Role: ORBITAL
    Keyword: BASIS
    atoms 1, 4-6 entry H          line    15 file /home/vance/anaconda3/envs/p4env/share/psi4/basis/def2-qzvp.gbs 
    atoms 2      entry I          line  3289 (ECP: line  4841) file /home/vance/anaconda3/envs/p4env/share/psi4/basis/def2-qzvp.gbs 
    atoms 3      entry N          line   242 file /home/vance/anaconda3/envs/p4env/share/psi4/basis/def2-qzvp.gbs 

    !!!  WARNING: ECP capability is in beta. Please check occupations closely.  !!!


         ---------------------------------------------------------
                                   SCF
               by Justin Turney, Rob Parrish, Andy Simmonett
                          and Daniel G. A. Smith
                              RHF Reference
                        4 Threads,   7629 MiB Core
         ---------------------------------------------------------

  ==> Geometry <==

    Molecular point group: c1
    Full point group: C1

    Geometry (in Angstrom), charge = 0, multiplicity = 1:

       Center              X                  Y                   Z               Mass       
    ------------   -----------------  -----------------  -----------------  -----------------
      Gh(H)          -0.114380343508     0.115054791121     1.345721015675     1.007825032230
      Gh(I)           0.031519656492    -0.031715208879    -0.371088984325   126.904471900000
         N           -0.222980343508     0.224364791121     2.625171015675    14.003074004430
         H            0.067069656492    -0.636225208879     3.071851015675     1.007825032230
         H            0.361009656492     0.980624791121     2.958761015675     1.007825032230
         H           -1.184460343508     0.416694791121     2.875831015675     1.007825032230

  Running in c1 symmetry.

  Rotational constants: A =      6.16453  B =      0.11555  C =      0.11555 [cm^-1]
  Rotational constants: A = 184807.88642  B =   3464.17518  C =   3464.17484 [MHz]
  Nuclear repulsion =   11.944068777330404

  Charge       = 0
  Multiplicity = 1
  Electrons    = 10
  Nalpha       = 5
  Nbeta        = 5

  ==> Algorithm <==

  SCF Algorithm Type is DF.
  DIIS enabled.
  MOM disabled.
  Fractional occupation disabled.
  Guess Type is SAD.
  Energy threshold   = 1.00e-08
  Density threshold  = 1.00e-08
  Integral threshold = 1.00e-12

  ==> Primary Basis <==

  Basis Set: THIS_BASIS
    Blend: DEF2-QZVP
    Number of shells: 79
    Number of basis functions: 259
    Number of Cartesian functions: 316
    Spherical Harmonics?: true
    Max angular momentum: 4

  Core potential: THIS_BASIS
    Number of shells: 4
    Number of ECP primitives: 29
    Number of ECP core electrons: 0
    Max angular momentum: 3

   => Loading Basis Set <=

    Name: (THIS_BASIS AUX)
    Role: JKFIT
    Keyword: DF_BASIS_SCF
    atoms 1, 4-6 entry H          line    18 file /home/vance/anaconda3/envs/p4env/share/psi4/basis/def2-universal-jkfit.gbs 
    atoms 2      entry I          line  4980 file /home/vance/anaconda3/envs/p4env/share/psi4/basis/def2-universal-jkfit.gbs 
    atoms 3      entry N          line   258 file /home/vance/anaconda3/envs/p4env/share/psi4/basis/def2-universal-jkfit.gbs 

  ==> Integral Setup <==

  ==> DiskDFJK: Density-Fitted J/K Matrices <==

    J tasked:                  Yes
    K tasked:                  Yes
    wK tasked:                  No
    OpenMP threads:              4
    Integrals threads:           4
    Memory [MiB]:             5722
    Algorithm:                Core
    Integral Cache:           LOAD
    Schwarz Cutoff:          1E-12
    Fitting Condition:       1E-10

   => Auxiliary Basis Set <=

  Basis Set: (THIS_BASIS AUX)
    Blend: DEF2-UNIVERSAL-JKFIT
    Number of shells: 95
    Number of basis functions: 367
    Number of Cartesian functions: 482
    Spherical Harmonics?: true
    Max angular momentum: 5

  Minimum eigenvalue in the overlap matrix is 9.1989369073E-05.
  Reciprocal condition number of the overlap matrix is 1.0102950527E-05.
    Using symmetric orthogonalization.

  ==> Pre-Iterations <==

  SCF Guess: Superposition of Atomic Densities via on-the-fly atomic UHF (no occupation information).

   -------------------------
    Irrep   Nso     Nmo    
   -------------------------
     A        259     259 
   -------------------------
    Total     259     259
   -------------------------

  ==> Iterations <==

                           Total Energy        Delta E     RMS |[F,P]|

   @DF-RHF iter SAD:   -55.64954594221808   -5.56495e+01   0.00000e+00 
   @DF-RHF iter   1:   -56.12995219897687   -4.80406e-01   1.77378e-03 ADIIS/DIIS
   @DF-RHF iter   2:   -56.19679912676087   -6.68469e-02   1.02278e-03 ADIIS/DIIS
   @DF-RHF iter   3:   -56.22367859858316   -2.68795e-02   9.46919e-05 DIIS
   @DF-RHF iter   4:   -56.22430494955459   -6.26351e-04   1.75590e-05 DIIS
   @DF-RHF iter   5:   -56.22432537282162   -2.04233e-05   3.27831e-06 DIIS
   @DF-RHF iter   6:   -56.22432659061137   -1.21779e-06   8.51472e-07 DIIS
   @DF-RHF iter   7:   -56.22432667685920   -8.62478e-08   1.88307e-07 DIIS
   @DF-RHF iter   8:   -56.22432668137673   -4.51753e-09   2.95377e-08 DIIS
   @DF-RHF iter   9:   -56.22432668148664   -1.09914e-10   8.36801e-09 DIIS
  Energy and wave function converged.


  ==> Post-Iterations <==

    Orbital Energies [Eh]
    ---------------------

    Doubly Occupied:                                                      

       1A    -15.537940     2A     -1.137894     3A     -0.631686  
       4A     -0.631684     5A     -0.422787  

    Virtual:                                                              

       6A      0.092117     7A      0.110127     8A      0.139894  
       9A      0.139895    10A      0.172336    11A      0.172338  
      12A      0.192858    13A      0.309911    14A      0.316446  
      15A      0.316450    16A      0.358293    17A      0.424961  
      18A      0.424964    19A      0.439566    20A      0.453377  
      21A      0.453395    22A      0.503778    23A      0.511078  
      24A      0.511078    25A      0.527226    26A      0.530349  
      27A      0.530352    28A      0.608439    29A      0.608452  
      30A      0.666576    31A      0.775270    32A      0.867303  
      33A      0.881668    34A      0.881701    35A      0.920572  
      36A      0.953054    37A      0.953055    38A      0.953305  
      39A      1.022658    40A      1.022660    41A      1.055422  
      42A      1.056901    43A      1.122326    44A      1.122351  
      45A      1.146512    46A      1.147673    47A      1.147691  
      48A      1.260930    49A      1.270989    50A      1.271002  
      51A      1.329938    52A      1.335895    53A      1.347274  
      54A      1.347276    55A      1.357752    56A      1.374945  
      57A      1.374948    58A      1.409473    59A      1.409479  
      60A      1.421529    61A      1.421543    62A      1.441839  
      63A      1.672920    64A      1.672937    65A      1.681527  
      66A      1.757709    67A      1.969224    68A      1.969251  
      69A      2.146857    70A      2.245827    71A      2.262830  
      72A      2.262848    73A      2.340186    74A      2.354206  
      75A      2.354222    76A      2.394723    77A      2.509417  
      78A      2.509419    79A      2.595724    80A      2.595726  
      81A      2.612156    82A      2.627676    83A      2.627676  
      84A      2.629704    85A      2.629718    86A      2.642390  
      87A      2.642393    88A      2.682317    89A      2.682374  
      90A      2.769708    91A      2.819729    92A      2.819774  
      93A      2.927997    94A      2.969839    95A      2.969841  
      96A      2.983510    97A      2.983521    98A      2.987997  
      99A      3.109356   100A      3.169241   101A      3.169259  
     102A      3.181617   103A      3.185888   104A      3.193492  
     105A      3.193497   106A      3.223932   107A      3.235272  
     108A      3.235290   109A      3.281504   110A      3.294135  
     111A      3.294157   112A      3.317231   113A      3.369738  
     114A      3.374250   115A      3.374253   116A      3.467464  
     117A      3.467482   118A      3.509722   119A      3.577042  
     120A      3.577044   121A      3.647400   122A      3.647429  
     123A      3.681949   124A      3.766222   125A      3.766253  
     126A      3.873216   127A      3.918011   128A      3.985568  
     129A      3.985603   130A      4.188760   131A      4.256120  
     132A      4.325687   133A      4.363641   134A      4.363689  
     135A      4.551899   136A      4.551916   137A      4.688555  
     138A      4.688566   139A      4.784576   140A      5.215559  
     141A      5.526648   142A      5.526702   143A      5.869968  
     144A      6.221950   145A      6.221968   146A      6.288924  
     147A      6.288940   148A      6.319460   149A      6.379800  
     150A      6.379841   151A      6.380477   152A      6.398840  
     153A      6.631417   154A      6.700241   155A      6.700293  
     156A      6.785043   157A      6.946964   158A      7.143591  
     159A      7.143608   160A      7.300799   161A      7.349356  
     162A      7.349431   163A      7.490377   164A      7.490434  
     165A      7.571578   166A      7.648184   167A      7.648205  
     168A      7.701238   169A      7.726448   170A      7.726467  
     171A      7.775265   172A      8.014151   173A      8.014233  
     174A      8.108497   175A      8.145852   176A      8.145899  
     177A      8.322625   178A      8.330879   179A      8.330919  
     180A      8.398001   181A      8.501365   182A      8.501390  
     183A      8.536128   184A      8.550978   185A      8.609613  
     186A      8.609689   187A      8.708827   188A      8.749766  
     189A      8.882915   190A      8.882957   191A      8.958260  
     192A      9.019282   193A      9.019296   194A      9.057911  
     195A      9.057920   196A      9.154692   197A      9.217037  
     198A      9.217080   199A      9.363743   200A      9.363798  
     201A      9.679532   202A      9.739961   203A      9.739977  
     204A      9.925428   205A      9.925457   206A      9.946528  
     207A     10.079847   208A     10.234227   209A     10.234271  
     210A     10.313813   211A     10.320296   212A     10.453494  
     213A     10.453633   214A     10.599283   215A     10.599930  
     216A     10.614143   217A     10.614144   218A     10.647189  
     219A     10.760676   220A     10.760715   221A     10.888704  
     222A     10.888717   223A     11.010537   224A     11.350316  
     225A     11.630865   226A     11.783507   227A     11.783534  
     228A     12.069532   229A     12.172846   230A     12.172859  
     231A     12.362479   232A     12.362504   233A     12.479354  
     234A     13.196070   235A     13.865991   236A     13.865992  
     237A     14.700887   238A     14.700890   239A     14.780013  
     240A     14.788445   241A     14.788453   242A     14.943484  
     243A     14.943513   244A     15.457162   245A     15.888198  
     246A     32.658804   247A     32.659140   248A     32.663477  
     249A     32.663477   250A     32.738629   251A     32.738631  
     252A     32.903975   253A     36.528306   254A     39.585425  
     255A     91.304848   256A     91.304848   257A     91.405659  
     258A    168.374021   259A    200.736673  

    Final Occupation by Irrep:
              A 
    DOCC [     5 ]
    NA   [     5 ]
    NB   [     5 ]

  @DF-RHF Final Energy:   -56.22432668148664

   => Energetics <=

    Nuclear Repulsion Energy =             11.9440687773304042
    One-Electron Energy =                 -99.6128074938054766
    Two-Electron Energy =                  31.4444120349884315
    Total Energy =                        -56.2243266814866445

Computation Completed


Properties will be evaluated at   0.000000,   0.000000,   0.000000 [a0]

Properties computed using the SCF density matrix


 Multipole Moments:

 ------------------------------------------------------------------------------------
     Multipole            Electronic (a.u.)      Nuclear  (a.u.)        Total (a.u.)
 ------------------------------------------------------------------------------------

 L = 1.  Multiply by 2.5417464519 to convert [e a0] to [Debye]
 Dipole X            :          4.3291302           -4.3789555           -0.0498253
 Dipole Y            :         -4.3560275            4.4061760            0.0501485
 Dipole Z            :        -50.9692342           51.5567179            0.5874837
 Magnitude           :                                                    0.5917216

 ------------------------------------------------------------------------------------

*** tstop() called on cmpsrv002 at Thu Sep 26 15:25:58 2024
Module time:
	user time   =       8.45 seconds =       0.14 minutes
	system time =       0.67 seconds =       0.01 minutes
	total time  =          5 seconds =       0.08 minutes
Total time:
	user time   =      41.70 seconds =       0.70 minutes
	system time =       4.36 seconds =       0.07 minutes
	total time  =         25 seconds =       0.42 minutes

*** tstart() called on cmpsrv002
*** at Thu Sep 26 15:25:58 2024


  //>>>>>>>>>>>>>>>>>>>>>>>>>>>>>>>>>>>//
  //               DFMP2               //
  //<<<<<<<<<<<<<<<<<<<<<<<<<<<<<<<<<<<//

   => Loading Basis Set <=

    Name: (THIS_BASIS AUX)
    Role: RIFIT
    Keyword: DF_BASIS_MP2
    atoms 1, 4-6 entry H          line    23 file /home/vance/anaconda3/envs/p4env/share/psi4/basis/def2-qzvp-ri.gbs 
    atoms 2      entry I          line  4948 file /home/vance/anaconda3/envs/p4env/share/psi4/basis/def2-qzvpp-ri.gbs 
    atoms 3      entry N          line   337 file /home/vance/anaconda3/envs/p4env/share/psi4/basis/def2-qzvp-ri.gbs 

	 --------------------------------------------------------
	                          DF-MP2                         
	      2nd-Order Density-Fitted Moller-Plesset Theory     
	              RMP2 Wavefunction,   4 Threads             
	                                                         
	        Rob Parrish, Justin Turney, Andy Simmonett,      
	           Ed Hohenstein, and C. David Sherrill          
	 --------------------------------------------------------

   => Auxiliary Basis Set <=

  Basis Set: (THIS_BASIS AUX)
    Blend: DEF2-QZVP-RI + DEF2-QZVPP-RI
    Number of shells: 147
    Number of basis functions: 641
    Number of Cartesian functions: 900
    Spherical Harmonics?: true
    Max angular momentum: 6

	 --------------------------------------------------------
	                 NBF =   259, NAUX =   641
	 --------------------------------------------------------
	   CLASS    FOCC     OCC    AOCC    AVIR     VIR    FVIR
	   PAIRS       0       5       5     254     254       0
	 --------------------------------------------------------

	 Will attempt to load fitting metric from file 97.

	-----------------------------------------------------------
	 ==================> DF-MP2 Energies <==================== 
	-----------------------------------------------------------
	 Reference Energy          =     -56.2243266814866445 [Eh]
	 Singles Energy            =      -0.0000000000000000 [Eh]
	 Same-Spin Energy          =      -0.0583002572155827 [Eh]
	 Opposite-Spin Energy      =      -0.2201820472367356 [Eh]
	 Correlation Energy        =      -0.2784823044523183 [Eh]
	 Total Energy              =     -56.5028089859389624 [Eh]
	-----------------------------------------------------------
	 ================> DF-SCS-MP2 Energies <================== 
	-----------------------------------------------------------
	 SCS Same-Spin Scale       =       0.3333333333333333 [-]
	 SCS Opposite-Spin Scale   =       1.2000000000000000 [-]
	 SCS Same-Spin Energy      =      -0.0194334190718609 [Eh]
	 SCS Opposite-Spin Energy  =      -0.2642184566840827 [Eh]
	 SCS Correlation Energy    =      -0.2836518757559435 [Eh]
	 SCS Total Energy          =     -56.5079785572425877 [Eh]
	-----------------------------------------------------------


*** tstop() called on cmpsrv002 at Thu Sep 26 15:26:00 2024
Module time:
	user time   =       2.89 seconds =       0.05 minutes
	system time =       0.43 seconds =       0.01 minutes
	total time  =          2 seconds =       0.03 minutes
Total time:
	user time   =      44.59 seconds =       0.74 minutes
	system time =       4.79 seconds =       0.08 minutes
	total time  =         27 seconds =       0.45 minutes
  Constructing Basis Sets for SAPT...

   => Loading Basis Set <=

    Name: (THIS_BASIS AUX)
    Role: RIFIT
    Keyword: DF_BASIS_SAPT
    atoms 1, 4-6 entry H          line    23 file /home/vance/anaconda3/envs/p4env/share/psi4/basis/def2-qzvp-ri.gbs 
    atoms 2      entry I          line  4948 file /home/vance/anaconda3/envs/p4env/share/psi4/basis/def2-qzvpp-ri.gbs 
    atoms 3      entry N          line   337 file /home/vance/anaconda3/envs/p4env/share/psi4/basis/def2-qzvp-ri.gbs 

   => Loading Basis Set <=

    Name: (THIS_BASIS AUX)
    Role: JKFIT
    Keyword: DF_BASIS_ELST
    atoms 1, 4-6 entry H          line    18 file /home/vance/anaconda3/envs/p4env/share/psi4/basis/def2-universal-jkfit.gbs 
    atoms 2      entry I          line  4980 file /home/vance/anaconda3/envs/p4env/share/psi4/basis/def2-universal-jkfit.gbs 
    atoms 3      entry N          line   258 file /home/vance/anaconda3/envs/p4env/share/psi4/basis/def2-universal-jkfit.gbs 


  //>>>>>>>>>>>>>>>>>>>>>>>>>>>>>>>>>>>//
  //             SAPT2+DMP2            //
  //<<<<<<<<<<<<<<<<<<<<<<<<<<<<<<<<<<<//


*** tstart() called on cmpsrv002
*** at Thu Sep 26 15:26:00 2024

        SAPT2+  
    Ed Hohenstein
     6 June 2009

      Orbital Information
  --------------------------
    NSO        =       259
    NMO        =       259
    NRI        =       641
    NOCC A     =        13
    NOCC B     =         5
    FOCC A     =         0
    FOCC B     =         0
    NVIR A     =       246
    NVIR B     =       254

    Estimated memory usage: 592.5 MB

    Natural Orbital Cutoff:   1.000E-06
    Disp(T3) Truncation:            Yes
    CCD (vv|vv) Truncation:         Yes
    MBPT T2 Truncation:             Yes

    Monomer A: 139 virtual orbitals dropped
    Monomer B: 105 virtual orbitals dropped

    Elst10,r            =    -0.090308620254 [Eh]
    Exch10 (S^2)        =     0.166355639466 [Eh]
    Exch10              =     0.190349086827 [Eh]
    Ind20,r (A<-B)      =    -0.067431588187 [Eh]
    Ind20,r (B<-A)      =    -0.039288239996 [Eh]
    Ind20,r             =    -0.106719828183 [Eh]
    Exch-Ind20,r (A<-B) =     0.049563871381 [Eh]
    Exch-Ind20,r (B<-A) =     0.004959644128 [Eh]
    Exch-Ind20,r        =     0.054523515508 [Eh]
    Disp20              =    -0.038012460709 [Eh]
    Disp20 (NO)         =    -0.034474676311 [Eh]
    Exch-Disp20         =     0.006536705978 [Eh]
    Elst12,r            =     0.003624502457 [Eh]
    Exch11              =     0.008314559299 [Eh]
    Exch12              =    -0.008777952546 [Eh]
    Ind22               =     0.001216540808 [Eh]
    Disp21              =     0.005497611719 [Eh]
    Disp22 (SDQ)        =     0.001655874489 [Eh]

    (i =   1 of   5)          7 seconds
    (i =   2 of   5)         16 seconds
    (i =   3 of   5)         25 seconds
    (i =   4 of   5)         34 seconds
    (i =   5 of   5)         41 seconds

    Disp220 (T)         =    -0.002427700012 [Eh]

    (i =   1 of  13)          3 seconds
    (i =   2 of  13)          6 seconds
    (i =   3 of  13)         10 seconds
    (i =   4 of  13)         13 seconds
    (i =   5 of  13)         17 seconds
    (i =   6 of  13)         21 seconds
    (i =   7 of  13)         24 seconds
    (i =   8 of  13)         27 seconds
    (i =   9 of  13)         30 seconds
    (i =  10 of  13)         34 seconds
    (i =  11 of  13)         36 seconds
    (i =  12 of  13)         39 seconds
    (i =  13 of  13)         42 seconds

    Disp202 (T)         =    -0.002277177090 [Eh]

    Disp22 (T)          =    -0.004704877102 [Eh]

    Est. Disp220 (T)    =    -0.002676830103 [Eh]
    Est. Disp202 (T)    =    -0.002510860549 [Eh]

    Est. Disp22 (T)     =    -0.005187690651 [Eh]

    SAPT Results 
  --------------------------------------------------------------------------------------------------------
    Electrostatics                -86.68411780 [mEh]     -54.39510514 [kcal/mol]    -227.58911992 [kJ/mol]
      Elst10,r                    -90.30862025 [mEh]     -56.66951477 [kcal/mol]    -237.10524981 [kJ/mol]
      Elst12,r                      3.62450246 [mEh]       2.27440963 [kcal/mol]       9.51612989 [kJ/mol]

    Exchange                      189.88569358 [mEh]     119.15507166 [kcal/mol]     498.54481981 [kJ/mol]
      Exch10                      190.34908683 [mEh]     119.44585531 [kcal/mol]     499.76145861 [kJ/mol]
      Exch10(S^2)                 166.35563947 [mEh]     104.38973978 [kcal/mol]     436.76667124 [kJ/mol]
      Exch11(S^2)                   8.31455930 [mEh]       5.21746473 [kcal/mol]      21.82987243 [kJ/mol]
      Exch12(S^2)                  -8.77795255 [mEh]      -5.50824838 [kcal/mol]     -23.04651123 [kJ/mol]

    Induction                     -84.96255051 [mEh]     -53.31480536 [kcal/mol]    -223.06914563 [kJ/mol]
      Ind20,r                    -106.71982818 [mEh]     -66.96770322 [kcal/mol]    -280.19287029 [kJ/mol]
      Ind22                         1.21654081 [mEh]       0.76339088 [kcal/mol]       3.19402745 [kJ/mol]
      Exch-Ind20,r                 54.52351551 [mEh]      34.21402253 [kcal/mol]     143.15147025 [kJ/mol]
      Exch-Ind22                   -0.62153475 [mEh]      -0.39001894 [kcal/mol]      -1.63183926 [kJ/mol]
      delta HF,r (2)              -46.21587996 [mEh]     -29.00090251 [kcal/mol]    -121.33977612 [kJ/mol]
      delta MP2,r (2)              12.85463607 [mEh]       8.06640591 [kcal/mol]      33.74984234 [kJ/mol]

    Dispersion                    -29.50995917 [mEh]     -18.51777895 [kcal/mol]     -77.47838714 [kJ/mol]
      Disp20                      -38.01246071 [mEh]     -23.85317922 [kcal/mol]     -99.80170184 [kJ/mol]
      Disp21                        5.49761172 [mEh]       3.44980344 [kcal/mol]      14.43397758 [kJ/mol]
      Disp22 (SDQ)                  1.65587449 [mEh]       1.03907693 [kcal/mol]       4.34749787 [kJ/mol]
      Disp22 (T)                   -4.70487710 [mEh]      -2.95235495 [kcal/mol]     -12.35265313 [kJ/mol]
      Est. Disp22 (T)              -5.18769065 [mEh]      -3.25532503 [kcal/mol]     -13.62027993 [kJ/mol]
      Exch-Disp20                   6.53670598 [mEh]       4.10184493 [kcal/mol]      17.16211918 [kJ/mol]

  Total HF                          1.62827394 [mEh]       1.02175732 [kcal/mol]       4.27503263 [kJ/mol]
  Total SAPT0                     -29.84748079 [mEh]     -18.72957697 [kcal/mol]     -78.36455003 [kJ/mol]
  Total SAPT2                     -26.09136553 [mEh]     -16.37257905 [kcal/mol]     -68.50287075 [kJ/mol]
  Total SAPT2+                    -24.12556997 [mEh]     -15.13902372 [kcal/mol]     -63.34167523 [kJ/mol]
  Total SAPT2+dMP2                -11.27093390 [mEh]      -7.07261780 [kcal/mol]     -29.59183288 [kJ/mol]

  Special recipe for scaled SAPT0 (see Manual):
    Electrostatics sSAPT0         -90.30862025 [mEh]     -56.66951477 [kcal/mol]    -237.10524981 [kJ/mol]
    Exchange sSAPT0               190.34908683 [mEh]     119.44585531 [kcal/mol]     499.76145861 [kJ/mol]
    Induction sSAPT0              -71.25421673 [mEh]     -44.71269604 [kcal/mol]    -187.07792024 [kJ/mol]
    Dispersion sSAPT0             -28.21984392 [mEh]     -17.70821941 [kcal/mol]     -74.09119001 [kJ/mol]
  Total sSAPT0                      0.56640593 [mEh]       0.35542508 [kcal/mol]       1.48709855 [kJ/mol]
  --------------------------------------------------------------------------------------------------------

*** tstop() called on cmpsrv002 at Thu Sep 26 15:29:22 2024
Module time:
	user time   =     498.62 seconds =       8.31 minutes
	system time =      31.28 seconds =       0.52 minutes
	total time  =        202 seconds =       3.37 minutes
Total time:
	user time   =     543.64 seconds =       9.06 minutes
	system time =      36.11 seconds =       0.60 minutes
	total time  =        229 seconds =       3.82 minutes

    Psi4 stopped on: Thursday, 26 September 2024 03:29PM
    Psi4 wall time for execution: 0:03:49.02

*** Psi4 exiting successfully. Buy a developer a beer!
