
Host: cmpsrv002

Timers On : Thu Sep 26 15:15:51 2024
Timers Off: Thu Sep 26 15:17:37 2024

Wall Time:      105.40 seconds

                                                       Time (seconds)
Module                                       User      System        Wall        Calls
SAPT: Dimer SCF                     :     18.950u      2.333s      3.514w      1 calls
Libint2ERI::Libint2ERI              :      9.250u      1.083s      2.915w     36 calls
JK: (A|mn)                          :      1.450u      0.550s      0.300w      1 calls
JK: (A|Q)^-1/2                      :      0.467u      0.017s      0.072w      1 calls
JK: (Q|mn)                          :      1.433u      0.200s      0.248w      1 calls
HF: Form core H                     :      0.167u      0.000s      0.024w      3 calls
HF: Form S/X                        :      0.367u      0.017s      0.059w      3 calls
HF: Guess                           :      3.233u      0.750s      0.591w      3 calls
SAD Guess                           :      3.183u      0.750s      0.588w      3 calls
HF: Form G                          :     21.950u      0.217s      3.323w     31 calls
JK: D                               :      0.000u      0.000s      0.005w     31 calls
JK: USO2AO                          :      0.033u      0.000s      0.000w     31 calls
JK: JK                              :     21.833u      0.183s      3.310w     31 calls
JK: J                               :      4.700u      0.117s      0.714w     31 calls
JK: J1                              :      2.400u      0.017s      0.356w     31 calls
JK: J2                              :      2.217u      0.100s      0.347w     31 calls
JK: K                               :     16.617u      0.033s      2.522w     31 calls
JK: K1                              :     14.717u      0.033s      2.230w     31 calls
JK: K2                              :      1.900u      0.000s      0.291w     31 calls
JK: AO2USO                          :      0.000u      0.000s      0.000w     31 calls
HF: Form F                          :      0.000u      0.000s      0.004w     31 calls
HF: Form D                          :      0.050u      0.000s      0.007w     31 calls
HF: DIIS                            :      2.233u      0.217s      0.368w     28 calls
HF: Form C                          :      3.367u      0.117s      0.529w     28 calls
DFMP2 Singles                       :      0.000u      0.000s      0.002w      3 calls
DFMP2 Aia                           :     12.800u      1.967s      3.144w      3 calls
DFMP2 (A|mn)                        :      6.217u      0.000s      0.934w      3 calls
DFMP2 (A|mn)C_mi                    :      0.850u      0.000s      0.128w      3 calls
DFMP2 (A|mi)C_na                    :      0.317u      0.000s      0.051w      3 calls
DFMP2 Aia Write                     :      0.217u      0.100s      0.042w      3 calls
DFMP2 Bia                           :      1.100u      0.117s      0.187w      3 calls
DFMP2 Metric                        :      0.550u      0.033s      0.086w      3 calls
DFMP2 Aia Read                      :      0.033u      0.000s      0.007w      3 calls
DFMP2 (ia|A)(A|Q)                   :      0.267u      0.000s      0.044w      3 calls
DFMP2 Bia Write                     :      0.200u      0.083s      0.042w      3 calls
DFMP2 Energy                        :      0.983u      0.083s      0.154w      3 calls
DFMP2 Bia Read                      :      0.067u      0.017s      0.008w      6 calls
SAPT: Monomer A SCF                 :     12.467u      0.900s      2.305w      1 calls
SAPT: Monomer B SCF                 :     11.317u      0.717s      2.111w      1 calls
DF Integrals                        :     64.217u     11.650s     14.471w      1 calls
Omega Integrals                     :      0.167u      0.950s      0.670w      1 calls
Amplitudes                          :     82.400u      8.567s     14.677w      1 calls
Elst10                              :      0.000u      0.000s      0.000w      1 calls
Exch10 S^2                          :      0.017u      0.000s      0.006w      1 calls
Exch10                              :      0.017u      0.017s      0.003w      1 calls
Ind20,r                             :      5.533u      0.483s      0.907w      1 calls
Exch-Ind20,r                        :      0.217u      0.017s      0.034w      1 calls
Disp20                              :      0.500u      0.100s      0.091w      1 calls
Exch-Disp20                         :      3.450u      0.183s      0.545w      1 calls
Elst12                              :      0.000u      0.000s      0.000w      1 calls
Exch11                              :      0.150u      0.000s      0.020w      1 calls
Exch12                              :     54.433u      4.983s      9.552w      1 calls
Ind22                               :     10.750u      3.450s      2.860w      1 calls
Disp21                              :      0.233u      0.100s      0.070w      1 calls
Disp22 (SDQ)                        :     13.917u      2.033s      2.516w      1 calls
Disp22 (T)                          :    306.100u      6.900s     46.952w      1 calls

--------------------------------------------------------------------------------------
SAPT: Dimer SCF                     :     18.950u      2.333s      3.514w      1 calls
| Libint2ERI::Libint2ERI            :      0.950u      0.117s      0.334w      2 calls
| JK: (A|mn)                        :      1.450u      0.550s      0.300w      1 calls
| JK: (A|Q)^-1/2                    :      0.467u      0.017s      0.072w      1 calls
| | Libint2ERI::Libint2ERI          :      0.000u      0.000s      0.000w      4 calls
| JK: (Q|mn)                        :      1.433u      0.200s      0.248w      1 calls
| HF: Form core H                   :      0.067u      0.000s      0.008w      1 calls
| HF: Form S/X                      :      0.100u      0.017s      0.020w      1 calls
| HF: Guess                         :      1.617u      0.433s      0.303w      1 calls
| | SAD Guess                       :      1.583u      0.433s      0.302w      1 calls
| HF: Form G                        :      8.350u      0.133s      1.267w     11 calls
| | JK: D                           :      0.000u      0.000s      0.002w     11 calls
| | JK: USO2AO                      :      0.017u      0.000s      0.000w     11 calls
| | JK: JK                          :      8.283u      0.133s      1.262w     11 calls
| | | JK: J                         :      1.567u      0.067s      0.240w     11 calls
| | | | JK: J1                      :      0.833u      0.017s      0.121w     11 calls
| | | | JK: J2                      :      0.700u      0.050s      0.116w     11 calls
| | | JK: K                         :      6.467u      0.033s      0.986w     11 calls
| | | | JK: K1                      :      5.483u      0.033s      0.836w     11 calls
| | | | JK: K2                      :      0.983u      0.000s      0.150w     11 calls
| | JK: AO2USO                      :      0.000u      0.000s      0.000w     11 calls
| HF: Form F                        :      0.000u      0.000s      0.002w     11 calls
| HF: Form D                        :      0.017u      0.000s      0.003w     11 calls
| HF: DIIS                          :      1.067u      0.083s      0.172w     10 calls
| HF: Form C                        :      1.183u      0.050s      0.189w     10 calls
DFMP2 Singles                       :      0.000u      0.000s      0.002w      3 calls
DFMP2 Aia                           :     12.800u      1.967s      3.144w      3 calls
| Libint2ERI::Libint2ERI            :      4.333u      0.517s      1.141w     12 calls
| DFMP2 (A|mn)                      :      6.217u      0.000s      0.934w      3 calls
| DFMP2 (A|mn)C_mi                  :      0.850u      0.000s      0.128w      3 calls
| DFMP2 (A|mi)C_na                  :      0.317u      0.000s      0.051w      3 calls
| DFMP2 Aia Write                   :      0.217u      0.100s      0.042w      3 calls
DFMP2 Bia                           :      1.100u      0.117s      0.187w      3 calls
| DFMP2 Metric                      :      0.550u      0.033s      0.086w      3 calls
| | Libint2ERI::Libint2ERI          :      0.017u      0.000s      0.000w      4 calls
| DFMP2 Aia Read                    :      0.033u      0.000s      0.007w      3 calls
| DFMP2 (ia|A)(A|Q)                 :      0.267u      0.000s      0.044w      3 calls
| DFMP2 Bia Write                   :      0.200u      0.083s      0.042w      3 calls
DFMP2 Energy                        :      0.983u      0.083s      0.154w      3 calls
| DFMP2 Bia Read                    :      0.067u      0.017s      0.008w      6 calls
SAPT: Monomer A SCF                 :     12.467u      0.900s      2.305w      1 calls
| Libint2ERI::Libint2ERI            :      0.950u      0.100s      0.314w      2 calls
| HF: Form core H                   :      0.050u      0.000s      0.008w      1 calls
| HF: Form S/X                      :      0.133u      0.000s      0.020w      1 calls
| HF: Guess                         :      1.133u      0.283s      0.211w      1 calls
| | SAD Guess                       :      1.117u      0.283s      0.210w      1 calls
| HF: Form G                        :      6.983u      0.017s      1.056w     10 calls
| | JK: D                           :      0.000u      0.000s      0.002w     10 calls
| | JK: USO2AO                      :      0.017u      0.000s      0.000w     10 calls
| | JK: JK                          :      6.967u      0.017s      1.051w     10 calls
| | | JK: J                         :      1.533u      0.017s      0.231w     10 calls
| | | | JK: J1                      :      0.750u      0.000s      0.115w     10 calls
| | | | JK: J2                      :      0.750u      0.017s      0.112w     10 calls
| | | JK: K                         :      5.300u      0.000s      0.797w     10 calls
| | | | JK: K1                      :      4.683u      0.000s      0.708w     10 calls
| | | | JK: K2                      :      0.617u      0.000s      0.089w     10 calls
| | JK: AO2USO                      :      0.000u      0.000s      0.000w     10 calls
| HF: Form F                        :      0.000u      0.000s      0.001w     10 calls
| HF: Form D                        :      0.017u      0.000s      0.002w     10 calls
| HF: DIIS                          :      0.650u      0.033s      0.101w      9 calls
| HF: Form C                        :      1.083u      0.050s      0.170w      9 calls
SAPT: Monomer B SCF                 :     11.317u      0.717s      2.111w      1 calls
| Libint2ERI::Libint2ERI            :      0.983u      0.100s      0.314w      2 calls
| HF: Form core H                   :      0.050u      0.000s      0.008w      1 calls
| HF: Form S/X                      :      0.133u      0.000s      0.020w      1 calls
| HF: Guess                         :      0.483u      0.033s      0.077w      1 calls
| | SAD Guess                       :      0.483u      0.033s      0.076w      1 calls
| HF: Form G                        :      6.617u      0.067s      1.000w     10 calls
| | JK: D                           :      0.000u      0.000s      0.002w     10 calls
| | JK: USO2AO                      :      0.000u      0.000s      0.000w     10 calls
| | JK: JK                          :      6.583u      0.033s      0.996w     10 calls
| | | JK: J                         :      1.600u      0.033s      0.242w     10 calls
| | | | JK: J1                      :      0.817u      0.000s      0.120w     10 calls
| | | | JK: J2                      :      0.767u      0.033s      0.119w     10 calls
| | | JK: K                         :      4.850u      0.000s      0.739w     10 calls
| | | | JK: K1                      :      4.550u      0.000s      0.686w     10 calls
| | | | JK: K2                      :      0.300u      0.000s      0.052w     10 calls
| | JK: AO2USO                      :      0.000u      0.000s      0.000w     10 calls
| HF: Form F                        :      0.000u      0.000s      0.001w     10 calls
| HF: Form D                        :      0.017u      0.000s      0.002w     10 calls
| HF: DIIS                          :      0.517u      0.100s      0.095w      9 calls
| HF: Form C                        :      1.100u      0.017s      0.169w      9 calls
DF Integrals                        :     64.217u     11.650s     14.471w      1 calls
| Libint2ERI::Libint2ERI            :      2.017u      0.250s      0.811w     10 calls
Omega Integrals                     :      0.167u      0.950s      0.670w      1 calls
Amplitudes                          :     82.400u      8.567s     14.677w      1 calls
Elst10                              :      0.000u      0.000s      0.000w      1 calls
Exch10 S^2                          :      0.017u      0.000s      0.006w      1 calls
Exch10                              :      0.017u      0.017s      0.003w      1 calls
Ind20,r                             :      5.533u      0.483s      0.907w      1 calls
Exch-Ind20,r                        :      0.217u      0.017s      0.034w      1 calls
Disp20                              :      0.500u      0.100s      0.091w      1 calls
Exch-Disp20                         :      3.450u      0.183s      0.545w      1 calls
Elst12                              :      0.000u      0.000s      0.000w      1 calls
Exch11                              :      0.150u      0.000s      0.020w      1 calls
Exch12                              :     54.433u      4.983s      9.552w      1 calls
Ind22                               :     10.750u      3.450s      2.860w      1 calls
Disp21                              :      0.233u      0.100s      0.070w      1 calls
Disp22 (SDQ)                        :     13.917u      2.033s      2.516w      1 calls
Disp22 (T)                          :    306.100u      6.900s     46.952w      1 calls

**************************************************************************************

Host: cmpsrv002

Timers On : Thu Sep 26 15:25:32 2024
Timers Off: Thu Sep 26 15:29:13 2024

Wall Time:      220.37 seconds

                                                       Time (seconds)
Module                                       User      System        Wall        Calls
SAPT: Dimer SCF                     :     20.650u      2.350s      6.263w      1 calls
Libint2ERI::Libint2ERI              :      8.433u      0.283s      6.992w     36 calls
JK: (A|mn)                          :      0.800u      0.200s      0.179w      1 calls
JK: (A|Q)^-1/2                      :      0.700u      0.083s      0.220w      1 calls
JK: (Q|mn)                          :      0.617u      0.083s      0.170w      1 calls
HF: Form core H                     :      9.917u      0.933s      3.414w      3 calls
HF: Form S/X                        :      0.900u      0.067s      0.238w      3 calls
HF: Guess                           :      7.583u      0.933s      2.933w      3 calls
SAD Guess                           :      7.533u      0.917s      2.911w      3 calls
HF: Form G                          :     14.333u      0.533s      4.142w     34 calls
JK: D                               :      0.217u      0.067s      0.087w     34 calls
JK: USO2AO                          :      0.017u      0.000s      0.000w     34 calls
JK: JK                              :     13.250u      0.367s      3.729w     34 calls
JK: J                               :      2.133u      0.167s      0.604w     34 calls
JK: J1                              :      0.933u      0.050s      0.237w     34 calls
JK: J2                              :      1.133u      0.117s      0.354w     34 calls
JK: K                               :     10.733u      0.167s      3.050w     34 calls
JK: K1                              :      8.800u      0.100s      2.460w     34 calls
JK: K2                              :      1.900u      0.050s      0.576w     34 calls
JK: AO2USO                          :      0.000u      0.000s      0.000w     34 calls
HF: Form F                          :      0.383u      0.050s      0.145w     34 calls
HF: Form D                          :      0.150u      0.000s      0.054w     34 calls
HF: DIIS                            :      5.700u      0.733s      1.844w     31 calls
HF: Form C                          :      7.683u      0.800s      2.445w     31 calls
DFMP2 Singles                       :      0.233u      0.017s      0.100w      3 calls
DFMP2 Aia                           :     12.750u      1.967s      6.958w      3 calls
DFMP2 (A|mn)                        :      5.933u      0.000s      2.135w      3 calls
DFMP2 (A|mn)C_mi                    :      1.767u      0.033s      0.626w      3 calls
DFMP2 (A|mi)C_na                    :      0.533u      0.017s      0.186w      3 calls
DFMP2 Aia Write                     :      0.267u      0.133s      0.165w      3 calls
DFMP2 Bia                           :      3.483u      0.550s      1.464w      3 calls
DFMP2 Metric                        :      2.183u      0.250s      0.873w      3 calls
DFMP2 Aia Read                      :      0.017u      0.033s      0.032w      3 calls
DFMP2 (ia|A)(A|Q)                   :      0.667u      0.033s      0.249w      3 calls
DFMP2 Bia Write                     :      0.550u      0.233s      0.276w      3 calls
DFMP2 Energy                        :      1.583u      0.133s      0.722w      3 calls
DFMP2 Bia Read                      :      0.133u      0.033s      0.094w      6 calls
SAPT: Monomer A SCF                 :     19.900u      2.000s      7.594w      1 calls
SAPT: Monomer B SCF                 :     17.133u      1.467s      7.411w      1 calls
DF Integrals                        :     78.600u     15.517s     26.888w      1 calls
Omega Integrals                     :      0.050u      1.250s      1.193w      1 calls
Amplitudes                          :     80.567u      9.517s     68.509w      1 calls
Elst10                              :      0.000u      0.000s      0.000w      1 calls
Exch10 S^2                          :      0.000u      0.000s      0.001w      1 calls
Exch10                              :      0.000u      0.000s      0.002w      1 calls
Ind20,r                             :      4.583u      0.267s      0.728w      1 calls
Exch-Ind20,r                        :      0.217u      0.017s      0.036w      1 calls
Disp20                              :      0.417u      0.033s      0.067w      1 calls
Exch-Disp20                         :      3.200u      0.167s      9.118w      1 calls
Elst12                              :      0.000u      0.000s      0.000w      1 calls
Exch11                              :      0.133u      0.000s      0.020w      1 calls
Exch12                              :     47.617u      4.333s      7.987w      1 calls
Ind22                               :      9.783u      2.800s      2.156w      1 calls
Disp21                              :      0.333u      0.183s      0.104w      1 calls
Disp22 (SDQ)                        :     16.450u      2.183s      2.795w      1 calls
Disp22 (T)                          :    443.350u     10.750s     68.119w      1 calls

--------------------------------------------------------------------------------------
SAPT: Dimer SCF                     :     20.650u      2.350s      6.263w      1 calls
| Libint2ERI::Libint2ERI            :      0.467u      0.017s      0.294w      2 calls
| JK: (A|mn)                        :      0.800u      0.200s      0.179w      1 calls
| JK: (A|Q)^-1/2                    :      0.700u      0.083s      0.220w      1 calls
| | Libint2ERI::Libint2ERI          :      0.017u      0.000s      0.003w      4 calls
| JK: (Q|mn)                        :      0.617u      0.083s      0.170w      1 calls
| HF: Form core H                   :      3.317u      0.300s      0.927w      1 calls
| HF: Form S/X                      :      0.100u      0.000s      0.021w      1 calls
| HF: Guess                         :      3.200u      0.450s      1.044w      1 calls
| | SAD Guess                       :      3.200u      0.450s      1.042w      1 calls
| HF: Form G                        :      5.117u      0.200s      1.336w     12 calls
| | JK: D                           :      0.000u      0.000s      0.001w     12 calls
| | JK: USO2AO                      :      0.017u      0.000s      0.000w     12 calls
| | JK: JK                          :      4.817u      0.167s      1.231w     12 calls
| | | JK: J                         :      0.850u      0.083s      0.209w     12 calls
| | | | JK: J1                      :      0.417u      0.033s      0.092w     12 calls
| | | | JK: J2                      :      0.400u      0.050s      0.112w     12 calls
| | | JK: K                         :      3.833u      0.050s      0.993w     12 calls
| | | | JK: K1                      :      2.900u      0.017s      0.729w     12 calls
| | | | JK: K2                      :      0.900u      0.017s      0.252w     12 calls
| | JK: AO2USO                      :      0.000u      0.000s      0.000w     12 calls
| HF: Form F                        :      0.150u      0.000s      0.038w     12 calls
| HF: Form D                        :      0.017u      0.000s      0.005w     12 calls
| HF: DIIS                          :      1.933u      0.283s      0.590w     11 calls
| HF: Form C                        :      1.867u      0.150s      0.540w     11 calls
DFMP2 Singles                       :      0.233u      0.017s      0.100w      3 calls
DFMP2 Aia                           :     12.750u      1.967s      6.958w      3 calls
| Libint2ERI::Libint2ERI            :      3.383u      0.200s      2.048w     12 calls
| DFMP2 (A|mn)                      :      5.933u      0.000s      2.135w      3 calls
| DFMP2 (A|mn)C_mi                  :      1.767u      0.033s      0.626w      3 calls
| DFMP2 (A|mi)C_na                  :      0.533u      0.017s      0.186w      3 calls
| DFMP2 Aia Write                   :      0.267u      0.133s      0.165w      3 calls
DFMP2 Bia                           :      3.483u      0.550s      1.464w      3 calls
| DFMP2 Metric                      :      2.183u      0.250s      0.873w      3 calls
| | Libint2ERI::Libint2ERI          :      0.000u      0.000s      0.000w      4 calls
| DFMP2 Aia Read                    :      0.017u      0.033s      0.032w      3 calls
| DFMP2 (ia|A)(A|Q)                 :      0.667u      0.033s      0.249w      3 calls
| DFMP2 Bia Write                   :      0.550u      0.233s      0.276w      3 calls
DFMP2 Energy                        :      1.583u      0.133s      0.722w      3 calls
| DFMP2 Bia Read                    :      0.133u      0.033s      0.094w      6 calls
SAPT: Monomer A SCF                 :     19.900u      2.000s      7.594w      1 calls
| Libint2ERI::Libint2ERI            :      0.817u      0.000s      0.481w      2 calls
| HF: Form core H                   :      2.917u      0.283s      1.123w      1 calls
| HF: Form S/X                      :      0.483u      0.017s      0.109w      1 calls
| HF: Guess                         :      3.300u      0.333s      1.492w      1 calls
| | SAD Guess                       :      3.283u      0.333s      1.489w      1 calls
| HF: Form G                        :      4.917u      0.167s      1.524w     12 calls
| | JK: D                           :      0.133u      0.050s      0.048w     12 calls
| | JK: USO2AO                      :      0.000u      0.000s      0.000w     12 calls
| | JK: JK                          :      4.483u      0.067s      1.361w     12 calls
| | | JK: J                         :      0.567u      0.017s      0.189w     12 calls
| | | | JK: J1                      :      0.217u      0.000s      0.066w     12 calls
| | | | JK: J2                      :      0.350u      0.017s      0.118w     12 calls
| | | JK: K                         :      3.783u      0.050s      1.144w     12 calls
| | | | JK: K1                      :      3.050u      0.033s      0.912w     12 calls
| | | | JK: K2                      :      0.733u      0.017s      0.231w     12 calls
| | JK: AO2USO                      :      0.000u      0.000s      0.000w     12 calls
| HF: Form F                        :      0.150u      0.017s      0.068w     12 calls
| HF: Form D                        :      0.050u      0.000s      0.021w     12 calls
| HF: DIIS                          :      1.833u      0.267s      0.659w     11 calls
| HF: Form C                        :      3.233u      0.383s      1.111w     11 calls
SAPT: Monomer B SCF                 :     17.133u      1.467s      7.411w      1 calls
| Libint2ERI::Libint2ERI            :      0.850u      0.000s      1.462w      2 calls
| HF: Form core H                   :      3.683u      0.350s      1.364w      1 calls
| HF: Form S/X                      :      0.317u      0.050s      0.108w      1 calls
| HF: Guess                         :      1.083u      0.150s      0.397w      1 calls
| | SAD Guess                       :      1.050u      0.133s      0.380w      1 calls
| HF: Form G                        :      4.300u      0.167s      1.282w     10 calls
| | JK: D                           :      0.083u      0.017s      0.037w     10 calls
| | JK: USO2AO                      :      0.000u      0.000s      0.000w     10 calls
| | JK: JK                          :      3.950u      0.133s      1.137w     10 calls
| | | JK: J                         :      0.717u      0.067s      0.206w     10 calls
| | | | JK: J1                      :      0.300u      0.017s      0.078w     10 calls
| | | | JK: J2                      :      0.383u      0.050s      0.123w     10 calls
| | | JK: K                         :      3.117u      0.067s      0.913w     10 calls
| | | | JK: K1                      :      2.850u      0.050s      0.819w     10 calls
| | | | JK: K2                      :      0.267u      0.017s      0.093w     10 calls
| | JK: AO2USO                      :      0.000u      0.000s      0.000w     10 calls
| HF: Form F                        :      0.083u      0.033s      0.039w     10 calls
| HF: Form D                        :      0.083u      0.000s      0.028w     10 calls
| HF: DIIS                          :      1.933u      0.183s      0.595w      9 calls
| HF: Form C                        :      2.583u      0.267s      0.793w      9 calls
DF Integrals                        :     78.600u     15.517s     26.888w      1 calls
| Libint2ERI::Libint2ERI            :      2.900u      0.067s      2.703w     10 calls
Omega Integrals                     :      0.050u      1.250s      1.193w      1 calls
Amplitudes                          :     80.567u      9.517s     68.509w      1 calls
Elst10                              :      0.000u      0.000s      0.000w      1 calls
Exch10 S^2                          :      0.000u      0.000s      0.001w      1 calls
Exch10                              :      0.000u      0.000s      0.002w      1 calls
Ind20,r                             :      4.583u      0.267s      0.728w      1 calls
Exch-Ind20,r                        :      0.217u      0.017s      0.036w      1 calls
Disp20                              :      0.417u      0.033s      0.067w      1 calls
Exch-Disp20                         :      3.200u      0.167s      9.118w      1 calls
Elst12                              :      0.000u      0.000s      0.000w      1 calls
Exch11                              :      0.133u      0.000s      0.020w      1 calls
Exch12                              :     47.617u      4.333s      7.987w      1 calls
Ind22                               :      9.783u      2.800s      2.156w      1 calls
Disp21                              :      0.333u      0.183s      0.104w      1 calls
Disp22 (SDQ)                        :     16.450u      2.183s      2.795w      1 calls
Disp22 (T)                          :    443.350u     10.750s     68.119w      1 calls

**************************************************************************************

Host: cmpsrv002

Timers On : Thu Sep 26 15:25:32 2024
Timers Off: Thu Sep 26 15:29:13 2024

Wall Time:      220.45 seconds

                                                       Time (seconds)
Module                                       User      System        Wall        Calls
SAPT: Dimer SCF                     :     22.433u      2.483s      7.328w      1 calls
Libint2ERI::Libint2ERI              :      8.517u      0.317s      5.059w     36 calls
JK: (A|mn)                          :      0.767u      0.283s      0.265w      1 calls
JK: (A|Q)^-1/2                      :      0.283u      0.033s      0.093w      1 calls
JK: (Q|mn)                          :      0.683u      0.083s      0.230w      1 calls
HF: Form core H                     :     10.733u      0.617s      3.664w      3 calls
HF: Form S/X                        :      0.683u      0.083s      0.236w      3 calls
HF: Guess                           :      6.883u      0.600s      2.046w      3 calls
SAD Guess                           :      6.867u      0.600s      2.042w      3 calls
HF: Form G                          :     14.483u      0.350s      4.166w     33 calls
JK: D                               :      0.150u      0.067s      0.063w     33 calls
JK: USO2AO                          :      0.000u      0.000s      0.000w     33 calls
JK: JK                              :     13.617u      0.200s      3.859w     33 calls
JK: J                               :      2.050u      0.133s      0.614w     33 calls
JK: J1                              :      0.850u      0.050s      0.235w     33 calls
JK: J2                              :      1.083u      0.083s      0.365w     33 calls
JK: K                               :     11.317u      0.067s      3.163w     33 calls
JK: K1                              :      9.383u      0.033s      2.614w     33 calls
JK: K2                              :      1.900u      0.033s      0.548w     33 calls
JK: AO2USO                          :      0.000u      0.000s      0.000w     33 calls
HF: Form F                          :      0.317u      0.000s      0.102w     33 calls
HF: Form D                          :      0.317u      0.033s      0.096w     33 calls
HF: DIIS                            :      4.867u      0.817s      1.647w     30 calls
HF: Form C                          :      6.917u      0.750s      2.177w     30 calls
DFMP2 Singles                       :      0.133u      0.017s      0.068w      3 calls
DFMP2 Aia                           :     13.133u      1.833s      5.220w      3 calls
DFMP2 (A|mn)                        :      5.250u      0.000s      1.456w      3 calls
DFMP2 (A|mn)C_mi                    :      2.400u      0.033s      0.699w      3 calls
DFMP2 (A|mi)C_na                    :      0.533u      0.067s      0.140w      3 calls
DFMP2 Aia Write                     :      0.183u      0.150s      0.087w      3 calls
DFMP2 Bia                           :      2.500u      0.433s      0.836w      3 calls
DFMP2 Metric                        :      1.300u      0.200s      0.457w      3 calls
DFMP2 Aia Read                      :      0.067u      0.033s      0.035w      3 calls
DFMP2 (ia|A)(A|Q)                   :      0.650u      0.033s      0.173w      3 calls
DFMP2 Bia Write                     :      0.417u      0.167s      0.162w      3 calls
DFMP2 Energy                        :      1.417u      0.067s      0.412w      3 calls
DFMP2 Bia Read                      :      0.067u      0.017s      0.035w      6 calls
SAPT: Monomer A SCF                 :     16.800u      1.383s      6.084w      1 calls
SAPT: Monomer B SCF                 :     16.450u      1.283s      5.820w      1 calls
DF Integrals                        :     77.617u     15.450s     22.984w      1 calls
Omega Integrals                     :      0.217u      1.250s      0.889w      1 calls
Amplitudes                          :    125.917u     12.233s     72.205w      1 calls
Elst10                              :      0.000u      0.000s      0.000w      1 calls
Exch10 S^2                          :      0.000u      0.000s      0.001w      1 calls
Exch10                              :      0.017u      0.000s      0.002w      1 calls
Ind20,r                             :      4.717u      0.333s      0.758w      1 calls
Exch-Ind20,r                        :      0.217u      0.000s      0.033w      1 calls
Disp20                              :      0.417u      0.067s      0.073w      1 calls
Exch-Disp20                         :      3.300u      0.133s      8.279w      1 calls
Elst12                              :      0.000u      0.000s      0.000w      1 calls
Exch11                              :      0.100u      0.017s      0.018w      1 calls
Exch12                              :     45.667u      3.850s      7.513w      1 calls
Ind22                               :     12.317u      3.267s      2.769w      1 calls
Disp21                              :      0.450u      0.217s      0.127w      1 calls
Disp22 (SDQ)                        :     16.867u      2.283s      2.929w      1 calls
Disp22 (T)                          :    486.750u     11.750s     74.781w      1 calls

--------------------------------------------------------------------------------------
SAPT: Dimer SCF                     :     22.433u      2.483s      7.328w      1 calls
| Libint2ERI::Libint2ERI            :      0.750u      0.033s      0.466w      2 calls
| JK: (A|mn)                        :      0.767u      0.283s      0.265w      1 calls
| JK: (A|Q)^-1/2                    :      0.283u      0.033s      0.093w      1 calls
| | Libint2ERI::Libint2ERI          :      0.000u      0.017s      0.003w      4 calls
| JK: (Q|mn)                        :      0.683u      0.083s      0.230w      1 calls
| HF: Form core H                   :      3.500u      0.217s      1.119w      1 calls
| HF: Form S/X                      :      0.200u      0.033s      0.064w      1 calls
| HF: Guess                         :      3.067u      0.333s      0.748w      1 calls
| | SAD Guess                       :      3.067u      0.333s      0.747w      1 calls
| HF: Form G                        :      5.533u      0.183s      1.680w     12 calls
| | JK: D                           :      0.100u      0.033s      0.040w     12 calls
| | JK: USO2AO                      :      0.000u      0.000s      0.000w     12 calls
| | JK: JK                          :      5.083u      0.117s      1.525w     12 calls
| | | JK: J                         :      0.567u      0.050s      0.186w     12 calls
| | | | JK: J1                      :      0.217u      0.017s      0.070w     12 calls
| | | | JK: J2                      :      0.300u      0.033s      0.111w     12 calls
| | | JK: K                         :      4.450u      0.067s      1.309w     12 calls
| | | | JK: K1                      :      3.500u      0.033s      1.015w     12 calls
| | | | JK: K2                      :      0.933u      0.033s      0.293w     12 calls
| | JK: AO2USO                      :      0.000u      0.000s      0.000w     12 calls
| HF: Form F                        :      0.100u      0.000s      0.031w     12 calls
| HF: Form D                        :      0.133u      0.017s      0.043w     12 calls
| HF: DIIS                          :      2.300u      0.400s      0.796w     11 calls
| HF: Form C                        :      2.900u      0.367s      1.003w     11 calls
DFMP2 Singles                       :      0.133u      0.017s      0.068w      3 calls
DFMP2 Aia                           :     13.133u      1.833s      5.220w      3 calls
| Libint2ERI::Libint2ERI            :      3.800u      0.217s      1.845w     12 calls
| DFMP2 (A|mn)                      :      5.250u      0.000s      1.456w      3 calls
| DFMP2 (A|mn)C_mi                  :      2.400u      0.033s      0.699w      3 calls
| DFMP2 (A|mi)C_na                  :      0.533u      0.067s      0.140w      3 calls
| DFMP2 Aia Write                   :      0.183u      0.150s      0.087w      3 calls
DFMP2 Bia                           :      2.500u      0.433s      0.836w      3 calls
| DFMP2 Metric                      :      1.300u      0.200s      0.457w      3 calls
| | Libint2ERI::Libint2ERI          :      0.000u      0.000s      0.000w      4 calls
| DFMP2 Aia Read                    :      0.067u      0.033s      0.035w      3 calls
| DFMP2 (ia|A)(A|Q)                 :      0.650u      0.033s      0.173w      3 calls
| DFMP2 Bia Write                   :      0.417u      0.167s      0.162w      3 calls
DFMP2 Energy                        :      1.417u      0.067s      0.412w      3 calls
| DFMP2 Bia Read                    :      0.067u      0.017s      0.035w      6 calls
SAPT: Monomer A SCF                 :     16.800u      1.383s      6.084w      1 calls
| Libint2ERI::Libint2ERI            :      0.817u      0.000s      0.622w      2 calls
| HF: Form core H                   :      3.067u      0.233s      1.350w      1 calls
| HF: Form S/X                      :      0.167u      0.017s      0.049w      1 calls
| HF: Guess                         :      2.817u      0.133s      0.937w      1 calls
| | SAD Guess                       :      2.800u      0.133s      0.936w      1 calls
| HF: Form G                        :      4.600u      0.117s      1.296w     11 calls
| | JK: D                           :      0.017u      0.033s      0.015w     11 calls
| | JK: USO2AO                      :      0.000u      0.000s      0.000w     11 calls
| | JK: JK                          :      4.383u      0.067s      1.229w     11 calls
| | | JK: J                         :      0.850u      0.067s      0.265w     11 calls
| | | | JK: J1                      :      0.350u      0.033s      0.095w     11 calls
| | | | JK: J2                      :      0.483u      0.033s      0.166w     11 calls
| | | JK: K                         :      3.383u      0.000s      0.921w     11 calls
| | | | JK: K1                      :      2.833u      0.000s      0.782w     11 calls
| | | | JK: K2                      :      0.550u      0.000s      0.139w     11 calls
| | JK: AO2USO                      :      0.000u      0.000s      0.000w     11 calls
| HF: Form F                        :      0.050u      0.000s      0.012w     11 calls
| HF: Form D                        :      0.067u      0.000s      0.024w     11 calls
| HF: DIIS                          :      1.267u      0.200s      0.411w     10 calls
| HF: Form C                        :      1.883u      0.167s      0.563w     10 calls
SAPT: Monomer B SCF                 :     16.450u      1.283s      5.820w      1 calls
| Libint2ERI::Libint2ERI            :      0.850u      0.000s      0.935w      2 calls
| HF: Form core H                   :      4.167u      0.167s      1.195w      1 calls
| HF: Form S/X                      :      0.317u      0.033s      0.123w      1 calls
| HF: Guess                         :      1.000u      0.133s      0.361w      1 calls
| | SAD Guess                       :      1.000u      0.133s      0.360w      1 calls
| HF: Form G                        :      4.350u      0.050s      1.190w     10 calls
| | JK: D                           :      0.033u      0.000s      0.009w     10 calls
| | JK: USO2AO                      :      0.000u      0.000s      0.000w     10 calls
| | JK: JK                          :      4.150u      0.017s      1.105w     10 calls
| | | JK: J                         :      0.633u      0.017s      0.163w     10 calls
| | | | JK: J1                      :      0.283u      0.000s      0.070w     10 calls
| | | | JK: J2                      :      0.300u      0.017s      0.088w     10 calls
| | | JK: K                         :      3.483u      0.000s      0.933w     10 calls
| | | | JK: K1                      :      3.050u      0.000s      0.816w     10 calls
| | | | JK: K2                      :      0.417u      0.000s      0.116w     10 calls
| | JK: AO2USO                      :      0.000u      0.000s      0.000w     10 calls
| HF: Form F                        :      0.167u      0.000s      0.059w     10 calls
| HF: Form D                        :      0.117u      0.017s      0.029w     10 calls
| HF: DIIS                          :      1.300u      0.217s      0.440w      9 calls
| HF: Form C                        :      2.133u      0.217s      0.611w      9 calls
DF Integrals                        :     77.617u     15.450s     22.984w      1 calls
| Libint2ERI::Libint2ERI            :      2.300u      0.050s      1.186w     10 calls
Omega Integrals                     :      0.217u      1.250s      0.889w      1 calls
Amplitudes                          :    125.917u     12.233s     72.205w      1 calls
Elst10                              :      0.000u      0.000s      0.000w      1 calls
Exch10 S^2                          :      0.000u      0.000s      0.001w      1 calls
Exch10                              :      0.017u      0.000s      0.002w      1 calls
Ind20,r                             :      4.717u      0.333s      0.758w      1 calls
Exch-Ind20,r                        :      0.217u      0.000s      0.033w      1 calls
Disp20                              :      0.417u      0.067s      0.073w      1 calls
Exch-Disp20                         :      3.300u      0.133s      8.279w      1 calls
Elst12                              :      0.000u      0.000s      0.000w      1 calls
Exch11                              :      0.100u      0.017s      0.018w      1 calls
Exch12                              :     45.667u      3.850s      7.513w      1 calls
Ind22                               :     12.317u      3.267s      2.769w      1 calls
Disp21                              :      0.450u      0.217s      0.127w      1 calls
Disp22 (SDQ)                        :     16.867u      2.283s      2.929w      1 calls
Disp22 (T)                          :    486.750u     11.750s     74.781w      1 calls

**************************************************************************************

Host: cmpsrv002

Timers On : Thu Sep 26 15:25:32 2024
Timers Off: Thu Sep 26 15:29:21 2024

Wall Time:      228.23 seconds

                                                       Time (seconds)
Module                                       User      System        Wall        Calls
SAPT: Dimer SCF                     :     19.017u      2.183s      5.817w      1 calls
Libint2ERI::Libint2ERI              :      8.917u      0.300s      6.951w     36 calls
JK: (A|mn)                          :      0.717u      0.317s      0.187w      1 calls
JK: (A|Q)^-1/2                      :      0.267u      0.033s      0.080w      1 calls
JK: (Q|mn)                          :      0.567u      0.100s      0.204w      1 calls
HF: Form core H                     :     10.383u      0.733s      3.849w      3 calls
HF: Form S/X                        :      1.667u      0.283s      0.748w      3 calls
HF: Guess                           :      6.717u      0.750s      2.490w      3 calls
SAD Guess                           :      6.700u      0.733s      2.474w      3 calls
HF: Form G                          :     13.567u      0.383s      4.363w     33 calls
JK: D                               :      0.283u      0.067s      0.130w     33 calls
JK: USO2AO                          :      0.000u      0.000s      0.000w     33 calls
JK: JK                              :     12.783u      0.267s      4.023w     33 calls
JK: J                               :      1.750u      0.200s      0.577w     33 calls
JK: J1                              :      0.833u      0.083s      0.208w     33 calls
JK: J2                              :      0.917u      0.117s      0.356w     33 calls
JK: K                               :     10.767u      0.067s      3.384w     33 calls
JK: K1                              :      9.117u      0.067s      2.868w     33 calls
JK: K2                              :      1.650u      0.000s      0.514w     33 calls
JK: AO2USO                          :      0.000u      0.000s      0.000w     33 calls
HF: Form F                          :      0.200u      0.033s      0.076w     33 calls
HF: Form D                          :      0.300u      0.000s      0.106w     33 calls
HF: DIIS                            :      3.967u      0.600s      1.352w     30 calls
HF: Form C                          :      6.967u      0.967s      2.622w     30 calls
DFMP2 Singles                       :      0.133u      0.000s      0.038w      3 calls
DFMP2 Aia                           :     12.667u      2.083s      7.479w      3 calls
DFMP2 (A|mn)                        :      5.733u      0.017s      2.200w      3 calls
DFMP2 (A|mn)C_mi                    :      1.717u      0.033s      0.630w      3 calls
DFMP2 (A|mi)C_na                    :      0.450u      0.033s      0.165w      3 calls
DFMP2 Aia Write                     :      0.250u      0.167s      0.166w      3 calls
DFMP2 Bia                           :      2.683u      0.433s      1.193w      3 calls
DFMP2 Metric                        :      1.667u      0.183s      0.725w      3 calls
DFMP2 Aia Read                      :      0.033u      0.000s      0.013w      3 calls
DFMP2 (ia|A)(A|Q)                   :      0.700u      0.033s      0.247w      3 calls
DFMP2 Bia Write                     :      0.250u      0.200s      0.187w      3 calls
DFMP2 Energy                        :      1.550u      0.167s      0.582w      3 calls
DFMP2 Bia Read                      :      0.083u      0.083s      0.047w      6 calls
SAPT: Monomer A SCF                 :     18.350u      2.067s      8.050w      1 calls
SAPT: Monomer B SCF                 :     16.400u      1.500s      8.734w      1 calls
DF Integrals                        :     67.133u     14.050s     21.334w      1 calls
Omega Integrals                     :      0.083u      1.033s      0.816w      1 calls
Amplitudes                          :    101.267u     11.717s     71.651w      1 calls
Elst10                              :      0.000u      0.000s      0.000w      1 calls
Exch10 S^2                          :      0.000u      0.000s      0.001w      1 calls
Exch10                              :      0.017u      0.000s      0.002w      1 calls
Ind20,r                             :      5.167u      0.333s      0.823w      1 calls
Exch-Ind20,r                        :      0.233u      0.017s      0.039w      1 calls
Disp20                              :      0.417u      0.067s      0.073w      1 calls
Exch-Disp20                         :      3.317u      0.100s      8.916w      1 calls
Elst12                              :      0.017u      0.000s      0.000w      1 calls
Exch11                              :      0.133u      0.000s      0.020w      1 calls
Exch12                              :     45.867u      3.800s      7.601w      1 calls
Ind22                               :     11.350u      2.867s      2.513w      1 calls
Disp21                              :      0.317u      0.183s      0.102w      1 calls
Disp22 (SDQ)                        :     14.533u      1.883s      2.463w      1 calls
Disp22 (T)                          :    510.300u     12.683s     78.449w      1 calls

--------------------------------------------------------------------------------------
SAPT: Dimer SCF                     :     19.017u      2.183s      5.817w      1 calls
| Libint2ERI::Libint2ERI            :      0.650u      0.050s      0.414w      2 calls
| JK: (A|mn)                        :      0.717u      0.317s      0.187w      1 calls
| JK: (A|Q)^-1/2                    :      0.267u      0.033s      0.080w      1 calls
| | Libint2ERI::Libint2ERI          :      0.017u      0.000s      0.003w      4 calls
| JK: (Q|mn)                        :      0.567u      0.100s      0.204w      1 calls
| HF: Form core H                   :      3.550u      0.250s      1.001w      1 calls
| HF: Form S/X                      :      0.167u      0.017s      0.045w      1 calls
| HF: Guess                         :      2.800u      0.267s      0.722w      1 calls
| | SAD Guess                       :      2.800u      0.267s      0.721w      1 calls
| HF: Form G                        :      5.067u      0.100s      1.359w     12 calls
| | JK: D                           :      0.050u      0.017s      0.011w     12 calls
| | JK: USO2AO                      :      0.000u      0.000s      0.000w     12 calls
| | JK: JK                          :      4.800u      0.067s      1.264w     12 calls
| | | JK: J                         :      0.700u      0.017s      0.185w     12 calls
| | | | JK: J1                      :      0.383u      0.000s      0.092w     12 calls
| | | | JK: J2                      :      0.317u      0.017s      0.088w     12 calls
| | | JK: K                         :      4.000u      0.050s      1.052w     12 calls
| | | | JK: K1                      :      3.167u      0.050s      0.816w     12 calls
| | | | JK: K2                      :      0.833u      0.000s      0.236w     12 calls
| | JK: AO2USO                      :      0.000u      0.000s      0.000w     12 calls
| HF: Form F                        :      0.033u      0.017s      0.012w     12 calls
| HF: Form D                        :      0.100u      0.000s      0.020w     12 calls
| HF: DIIS                          :      1.783u      0.267s      0.527w     11 calls
| HF: Form C                        :      1.550u      0.167s      0.446w     11 calls
DFMP2 Singles                       :      0.133u      0.000s      0.038w      3 calls
DFMP2 Aia                           :     12.667u      2.083s      7.479w      3 calls
| Libint2ERI::Libint2ERI            :      3.650u      0.183s      2.510w     12 calls
| DFMP2 (A|mn)                      :      5.733u      0.017s      2.200w      3 calls
| DFMP2 (A|mn)C_mi                  :      1.717u      0.033s      0.630w      3 calls
| DFMP2 (A|mi)C_na                  :      0.450u      0.033s      0.165w      3 calls
| DFMP2 Aia Write                   :      0.250u      0.167s      0.166w      3 calls
DFMP2 Bia                           :      2.683u      0.433s      1.193w      3 calls
| DFMP2 Metric                      :      1.667u      0.183s      0.725w      3 calls
| | Libint2ERI::Libint2ERI          :      0.000u      0.000s      0.000w      4 calls
| DFMP2 Aia Read                    :      0.033u      0.000s      0.013w      3 calls
| DFMP2 (ia|A)(A|Q)                 :      0.700u      0.033s      0.247w      3 calls
| DFMP2 Bia Write                   :      0.250u      0.200s      0.187w      3 calls
DFMP2 Energy                        :      1.550u      0.167s      0.582w      3 calls
| DFMP2 Bia Read                    :      0.083u      0.083s      0.047w      6 calls
SAPT: Monomer A SCF                 :     18.350u      2.067s      8.050w      1 calls
| Libint2ERI::Libint2ERI            :      0.767u      0.000s      0.529w      2 calls
| HF: Form core H                   :      3.433u      0.333s      1.325w      1 calls
| HF: Form S/X                      :      0.700u      0.100s      0.242w      1 calls
| HF: Guess                         :      2.533u      0.300s      1.145w      1 calls
| | SAD Guess                       :      2.533u      0.300s      1.144w      1 calls
| HF: Form G                        :      4.400u      0.183s      1.695w     11 calls
| | JK: D                           :      0.167u      0.033s      0.085w     11 calls
| | JK: USO2AO                      :      0.000u      0.000s      0.000w     11 calls
| | JK: JK                          :      4.050u      0.117s      1.526w     11 calls
| | | JK: J                         :      0.533u      0.100s      0.208w     11 calls
| | | | JK: J1                      :      0.217u      0.050s      0.057w     11 calls
| | | | JK: J2                      :      0.317u      0.050s      0.147w     11 calls
| | | JK: K                         :      3.450u      0.017s      1.299w     11 calls
| | | | JK: K1                      :      2.867u      0.017s      1.088w     11 calls
| | | | JK: K2                      :      0.583u      0.000s      0.210w     11 calls
| | JK: AO2USO                      :      0.000u      0.000s      0.000w     11 calls
| HF: Form F                        :      0.083u      0.000s      0.034w     11 calls
| HF: Form D                        :      0.067u      0.000s      0.038w     11 calls
| HF: DIIS                          :      1.150u      0.167s      0.478w     10 calls
| HF: Form C                        :      3.133u      0.450s      1.367w     10 calls
SAPT: Monomer B SCF                 :     16.400u      1.500s      8.734w      1 calls
| Libint2ERI::Libint2ERI            :      0.933u      0.000s      1.832w      2 calls
| HF: Form core H                   :      3.400u      0.150s      1.523w      1 calls
| HF: Form S/X                      :      0.800u      0.167s      0.461w      1 calls
| HF: Guess                         :      1.383u      0.183s      0.622w      1 calls
| | SAD Guess                       :      1.367u      0.167s      0.609w      1 calls
| HF: Form G                        :      4.100u      0.100s      1.309w     10 calls
| | JK: D                           :      0.067u      0.017s      0.034w     10 calls
| | JK: USO2AO                      :      0.000u      0.000s      0.000w     10 calls
| | JK: JK                          :      3.933u      0.083s      1.233w     10 calls
| | | JK: J                         :      0.517u      0.083s      0.184w     10 calls
| | | | JK: J1                      :      0.233u      0.033s      0.059w     10 calls
| | | | JK: J2                      :      0.283u      0.050s      0.121w     10 calls
| | | JK: K                         :      3.317u      0.000s      1.033w     10 calls
| | | | JK: K1                      :      3.083u      0.000s      0.964w     10 calls
| | | | JK: K2                      :      0.233u      0.000s      0.068w     10 calls
| | JK: AO2USO                      :      0.000u      0.000s      0.000w     10 calls
| HF: Form F                        :      0.083u      0.017s      0.031w     10 calls
| HF: Form D                        :      0.133u      0.000s      0.048w     10 calls
| HF: DIIS                          :      1.033u      0.167s      0.347w      9 calls
| HF: Form C                        :      2.283u      0.350s      0.809w      9 calls
DF Integrals                        :     67.133u     14.050s     21.334w      1 calls
| Libint2ERI::Libint2ERI            :      2.900u      0.067s      1.662w     10 calls
Omega Integrals                     :      0.083u      1.033s      0.816w      1 calls
Amplitudes                          :    101.267u     11.717s     71.651w      1 calls
Elst10                              :      0.000u      0.000s      0.000w      1 calls
Exch10 S^2                          :      0.000u      0.000s      0.001w      1 calls
Exch10                              :      0.017u      0.000s      0.002w      1 calls
Ind20,r                             :      5.167u      0.333s      0.823w      1 calls
Exch-Ind20,r                        :      0.233u      0.017s      0.039w      1 calls
Disp20                              :      0.417u      0.067s      0.073w      1 calls
Exch-Disp20                         :      3.317u      0.100s      8.916w      1 calls
Elst12                              :      0.017u      0.000s      0.000w      1 calls
Exch11                              :      0.133u      0.000s      0.020w      1 calls
Exch12                              :     45.867u      3.800s      7.601w      1 calls
Ind22                               :     11.350u      2.867s      2.513w      1 calls
Disp21                              :      0.317u      0.183s      0.102w      1 calls
Disp22 (SDQ)                        :     14.533u      1.883s      2.463w      1 calls
Disp22 (T)                          :    510.300u     12.683s     78.449w      1 calls

**************************************************************************************

Host: cmpsrv002

Timers On : Thu Sep 26 15:25:32 2024
Timers Off: Thu Sep 26 15:29:22 2024

Wall Time:      229.33 seconds

                                                       Time (seconds)
Module                                       User      System        Wall        Calls
SAPT: Dimer SCF                     :     21.567u      2.017s      5.634w      1 calls
Libint2ERI::Libint2ERI              :      8.650u      0.283s      5.397w     36 calls
JK: (A|mn)                          :      0.967u      0.183s      0.206w      1 calls
JK: (A|Q)^-1/2                      :      0.367u      0.033s      0.070w      1 calls
JK: (Q|mn)                          :      0.817u      0.133s      0.164w      1 calls
HF: Form core H                     :     12.683u      0.833s      3.587w      3 calls
HF: Form S/X                        :      0.650u      0.067s      0.179w      3 calls
HF: Guess                           :      6.983u      0.667s      2.236w      3 calls
SAD Guess                           :      6.967u      0.667s      2.232w      3 calls
HF: Form G                          :     12.750u      0.433s      3.307w     35 calls
JK: D                               :      0.200u      0.033s      0.099w     35 calls
JK: USO2AO                          :      0.017u      0.000s      0.001w     35 calls
JK: JK                              :     11.967u      0.283s      3.001w     35 calls
JK: J                               :      1.783u      0.100s      0.464w     35 calls
JK: J1                              :      0.883u      0.083s      0.222w     35 calls
JK: J2                              :      0.883u      0.017s      0.229w     35 calls
JK: K                               :      9.850u      0.183s      2.449w     35 calls
JK: K1                              :      8.100u      0.117s      1.982w     35 calls
JK: K2                              :      1.733u      0.067s      0.465w     35 calls
JK: AO2USO                          :      0.000u      0.000s      0.000w     35 calls
HF: Form F                          :      0.117u      0.017s      0.045w     35 calls
HF: Form D                          :      0.200u      0.033s      0.063w     35 calls
HF: DIIS                            :      3.817u      0.550s      1.110w     32 calls
HF: Form C                          :      7.117u      0.617s      2.319w     32 calls
DFMP2 Singles                       :      0.033u      0.000s      0.024w      3 calls
DFMP2 Aia                           :     13.367u      2.400s      6.578w      3 calls
DFMP2 (A|mn)                        :      5.617u      0.000s      1.423w      3 calls
DFMP2 (A|mn)C_mi                    :      2.083u      0.050s      0.562w      3 calls
DFMP2 (A|mi)C_na                    :      0.633u      0.067s      0.192w      3 calls
DFMP2 Aia Write                     :      0.350u      0.200s      0.146w      3 calls
DFMP2 Bia                           :      3.533u      0.433s      1.227w      3 calls
DFMP2 Metric                        :      2.700u      0.300s      0.942w      3 calls
DFMP2 Aia Read                      :      0.000u      0.017s      0.013w      3 calls
DFMP2 (ia|A)(A|Q)                   :      0.583u      0.000s      0.181w      3 calls
DFMP2 Bia Write                     :      0.183u      0.117s      0.080w      3 calls
DFMP2 Energy                        :      1.333u      0.083s      0.466w      3 calls
DFMP2 Bia Read                      :      0.067u      0.017s      0.014w      6 calls
SAPT: Monomer A SCF                 :     19.117u      1.867s      7.621w      1 calls
SAPT: Monomer B SCF                 :     14.100u      1.117s      4.918w      1 calls
DF Integrals                        :     72.550u     14.200s     21.775w      1 calls
Omega Integrals                     :      0.150u      1.217s      0.819w      1 calls
Amplitudes                          :    136.617u     12.183s     73.458w      1 calls
Elst10                              :      0.000u      0.000s      0.000w      1 calls
Exch10 S^2                          :      0.017u      0.000s      0.001w      1 calls
Exch10                              :      0.000u      0.000s      0.002w      1 calls
Ind20,r                             :      4.683u      0.333s      0.753w      1 calls
Exch-Ind20,r                        :      0.217u      0.017s      0.034w      1 calls
Disp20                              :      0.433u      0.067s      0.077w      1 calls
Exch-Disp20                         :      3.283u      0.183s      8.290w      1 calls
Elst12                              :      0.000u      0.000s      0.001w      1 calls
Exch11                              :      0.200u      0.033s      0.031w      1 calls
Exch12                              :     44.817u      4.600s      7.779w      1 calls
Ind22                               :     11.983u      3.367s      2.797w      1 calls
Disp21                              :      0.400u      0.183s      0.117w      1 calls
Disp22 (SDQ)                        :     14.800u      2.167s      2.582w      1 calls
Disp22 (T)                          :    540.600u     13.567s     83.132w      1 calls

--------------------------------------------------------------------------------------
SAPT: Dimer SCF                     :     21.567u      2.017s      5.634w      1 calls
| Libint2ERI::Libint2ERI            :      0.717u      0.033s      0.442w      2 calls
| JK: (A|mn)                        :      0.967u      0.183s      0.206w      1 calls
| JK: (A|Q)^-1/2                    :      0.367u      0.033s      0.070w      1 calls
| | Libint2ERI::Libint2ERI          :      0.017u      0.000s      0.003w      4 calls
| JK: (Q|mn)                        :      0.817u      0.133s      0.164w      1 calls
| HF: Form core H                   :      4.383u      0.250s      1.139w      1 calls
| HF: Form S/X                      :      0.217u      0.000s      0.041w      1 calls
| HF: Guess                         :      3.100u      0.283s      0.712w      1 calls
| | SAD Guess                       :      3.100u      0.283s      0.710w      1 calls
| HF: Form G                        :      4.917u      0.117s      1.091w     12 calls
| | JK: D                           :      0.067u      0.000s      0.013w     12 calls
| | JK: USO2AO                      :      0.017u      0.000s      0.000w     12 calls
| | JK: JK                          :      4.617u      0.083s      1.020w     12 calls
| | | JK: J                         :      0.650u      0.033s      0.162w     12 calls
| | | | JK: J1                      :      0.317u      0.033s      0.087w     12 calls
| | | | JK: J2                      :      0.333u      0.000s      0.070w     12 calls
| | | JK: K                         :      3.833u      0.050s      0.839w     12 calls
| | | | JK: K1                      :      3.117u      0.033s      0.677w     12 calls
| | | | JK: K2                      :      0.717u      0.017s      0.162w     12 calls
| | JK: AO2USO                      :      0.000u      0.000s      0.000w     12 calls
| HF: Form F                        :      0.017u      0.000s      0.009w     12 calls
| HF: Form D                        :      0.033u      0.000s      0.014w     12 calls
| HF: DIIS                          :      1.567u      0.233s      0.388w     11 calls
| HF: Form C                        :      2.183u      0.233s      0.610w     11 calls
DFMP2 Singles                       :      0.033u      0.000s      0.024w      3 calls
DFMP2 Aia                           :     13.367u      2.400s      6.578w      3 calls
| Libint2ERI::Libint2ERI            :      3.950u      0.183s      2.292w     12 calls
| DFMP2 (A|mn)                      :      5.617u      0.000s      1.423w      3 calls
| DFMP2 (A|mn)C_mi                  :      2.083u      0.050s      0.562w      3 calls
| DFMP2 (A|mi)C_na                  :      0.633u      0.067s      0.192w      3 calls
| DFMP2 Aia Write                   :      0.350u      0.200s      0.146w      3 calls
DFMP2 Bia                           :      3.533u      0.433s      1.227w      3 calls
| DFMP2 Metric                      :      2.700u      0.300s      0.942w      3 calls
| | Libint2ERI::Libint2ERI          :      0.000u      0.000s      0.000w      4 calls
| DFMP2 Aia Read                    :      0.000u      0.017s      0.013w      3 calls
| DFMP2 (ia|A)(A|Q)                 :      0.583u      0.000s      0.181w      3 calls
| DFMP2 Bia Write                   :      0.183u      0.117s      0.080w      3 calls
DFMP2 Energy                        :      1.333u      0.083s      0.466w      3 calls
| DFMP2 Bia Read                    :      0.067u      0.017s      0.014w      6 calls
SAPT: Monomer A SCF                 :     19.117u      1.867s      7.621w      1 calls
| Libint2ERI::Libint2ERI            :      0.767u      0.000s      0.577w      2 calls
| HF: Form core H                   :      3.850u      0.267s      1.175w      1 calls
| HF: Form S/X                      :      0.200u      0.050s      0.077w      1 calls
| HF: Guess                         :      3.017u      0.267s      1.249w      1 calls
| | SAD Guess                       :      3.017u      0.267s      1.248w      1 calls
| HF: Form G                        :      4.517u      0.200s      1.527w     13 calls
| | JK: D                           :      0.133u      0.033s      0.085w     13 calls
| | JK: USO2AO                      :      0.000u      0.000s      0.000w     13 calls
| | JK: JK                          :      4.150u      0.100s      1.323w     13 calls
| | | JK: J                         :      0.517u      0.050s      0.167w     13 calls
| | | | JK: J1                      :      0.250u      0.033s      0.070w     13 calls
| | | | JK: J2                      :      0.250u      0.017s      0.093w     13 calls
| | | JK: K                         :      3.500u      0.050s      1.098w     13 calls
| | | | JK: K1                      :      2.817u      0.033s      0.877w     13 calls
| | | | JK: K2                      :      0.667u      0.017s      0.221w     13 calls
| | JK: AO2USO                      :      0.000u      0.000s      0.000w     13 calls
| HF: Form F                        :      0.100u      0.017s      0.034w     13 calls
| HF: Form D                        :      0.100u      0.033s      0.030w     13 calls
| HF: DIIS                          :      1.217u      0.217s      0.472w     12 calls
| HF: Form C                        :      3.633u      0.250s      1.418w     12 calls
SAPT: Monomer B SCF                 :     14.100u      1.117s      4.918w      1 calls
| Libint2ERI::Libint2ERI            :      0.833u      0.000s      0.994w      2 calls
| HF: Form core H                   :      4.450u      0.317s      1.273w      1 calls
| HF: Form S/X                      :      0.233u      0.017s      0.061w      1 calls
| HF: Guess                         :      0.867u      0.117s      0.275w      1 calls
| | SAD Guess                       :      0.850u      0.117s      0.274w      1 calls
| HF: Form G                        :      3.317u      0.117s      0.688w     10 calls
| | JK: D                           :      0.000u      0.000s      0.001w     10 calls
| | JK: USO2AO                      :      0.000u      0.000s      0.000w     10 calls
| | JK: JK                          :      3.200u      0.100s      0.658w     10 calls
| | | JK: J                         :      0.617u      0.017s      0.135w     10 calls
| | | | JK: J1                      :      0.317u      0.017s      0.065w     10 calls
| | | | JK: J2                      :      0.300u      0.000s      0.067w     10 calls
| | | JK: K                         :      2.517u      0.083s      0.512w     10 calls
| | | | JK: K1                      :      2.167u      0.050s      0.429w     10 calls
| | | | JK: K2                      :      0.350u      0.033s      0.082w     10 calls
| | JK: AO2USO                      :      0.000u      0.000s      0.000w     10 calls
| HF: Form F                        :      0.000u      0.000s      0.002w     10 calls
| HF: Form D                        :      0.067u      0.000s      0.019w     10 calls
| HF: DIIS                          :      1.033u      0.100s      0.250w      9 calls
| HF: Form C                        :      1.300u      0.133s      0.292w      9 calls
DF Integrals                        :     72.550u     14.200s     21.775w      1 calls
| Libint2ERI::Libint2ERI            :      2.367u      0.067s      1.088w     10 calls
Omega Integrals                     :      0.150u      1.217s      0.819w      1 calls
Amplitudes                          :    136.617u     12.183s     73.458w      1 calls
Elst10                              :      0.000u      0.000s      0.000w      1 calls
Exch10 S^2                          :      0.017u      0.000s      0.001w      1 calls
Exch10                              :      0.000u      0.000s      0.002w      1 calls
Ind20,r                             :      4.683u      0.333s      0.753w      1 calls
Exch-Ind20,r                        :      0.217u      0.017s      0.034w      1 calls
Disp20                              :      0.433u      0.067s      0.077w      1 calls
Exch-Disp20                         :      3.283u      0.183s      8.290w      1 calls
Elst12                              :      0.000u      0.000s      0.001w      1 calls
Exch11                              :      0.200u      0.033s      0.031w      1 calls
Exch12                              :     44.817u      4.600s      7.779w      1 calls
Ind22                               :     11.983u      3.367s      2.797w      1 calls
Disp21                              :      0.400u      0.183s      0.117w      1 calls
Disp22 (SDQ)                        :     14.800u      2.167s      2.582w      1 calls
Disp22 (T)                          :    540.600u     13.567s     83.132w      1 calls

**************************************************************************************

Host: cmpsrv002

Timers On : Thu Sep 26 15:25:32 2024
Timers Off: Thu Sep 26 15:29:31 2024

Wall Time:      238.62 seconds

                                                       Time (seconds)
Module                                       User      System        Wall        Calls
SAPT: Dimer SCF                     :     25.950u      2.667s      8.078w      1 calls
Libint2ERI::Libint2ERI              :      8.750u      0.250s      7.095w     36 calls
JK: (A|mn)                          :      0.867u      0.200s      0.246w      1 calls
JK: (A|Q)^-1/2                      :      0.817u      0.067s      0.245w      1 calls
JK: (Q|mn)                          :      0.533u      0.100s      0.172w      1 calls
HF: Form core H                     :      8.483u      0.800s      2.849w      3 calls
HF: Form S/X                        :      0.783u      0.100s      0.318w      3 calls
HF: Guess                           :      7.617u      0.933s      4.060w      3 calls
SAD Guess                           :      7.533u      0.917s      4.032w      3 calls
HF: Form G                          :     16.067u      0.450s      4.895w     36 calls
JK: D                               :      0.217u      0.050s      0.104w     36 calls
JK: USO2AO                          :      0.000u      0.000s      0.000w     36 calls
JK: JK                              :     15.233u      0.283s      4.499w     36 calls
JK: J                               :      2.417u      0.150s      0.760w     36 calls
JK: J1                              :      1.050u      0.083s      0.304w     36 calls
JK: J2                              :      1.267u      0.067s      0.441w     36 calls
JK: K                               :     12.550u      0.067s      3.675w     36 calls
JK: K1                              :     10.250u      0.050s      2.991w     36 calls
JK: K2                              :      2.283u      0.017s      0.682w     36 calls
JK: AO2USO                          :      0.000u      0.000s      0.000w     36 calls
HF: Form F                          :      0.150u      0.017s      0.070w     36 calls
HF: Form D                          :      0.333u      0.017s      0.149w     36 calls
HF: DIIS                            :      6.150u      0.917s      2.221w     33 calls
HF: Form C                          :      9.700u      1.017s      3.329w     33 calls
DFMP2 Singles                       :      0.183u      0.000s      0.092w      3 calls
DFMP2 Aia                           :     13.683u      1.883s      7.869w      3 calls
DFMP2 (A|mn)                        :      6.117u      0.000s      1.962w      3 calls
DFMP2 (A|mn)C_mi                    :      1.950u      0.017s      0.546w      3 calls
DFMP2 (A|mi)C_na                    :      0.517u      0.017s      0.150w      3 calls
DFMP2 Aia Write                     :      0.300u      0.200s      0.157w      3 calls
DFMP2 Bia                           :      2.983u      0.483s      1.342w      3 calls
DFMP2 Metric                        :      1.800u      0.233s      0.914w      3 calls
DFMP2 Aia Read                      :      0.050u      0.017s      0.037w      3 calls
DFMP2 (ia|A)(A|Q)                   :      0.833u      0.050s      0.254w      3 calls
DFMP2 Bia Write                     :      0.217u      0.167s      0.125w      3 calls
DFMP2 Energy                        :      1.683u      0.117s      0.556w      3 calls
DFMP2 Bia Read                      :      0.067u      0.050s      0.043w      6 calls
SAPT: Monomer A SCF                 :     21.050u      2.233s     11.047w      1 calls
SAPT: Monomer B SCF                 :     13.383u      1.200s      4.180w      1 calls
DF Integrals                        :     77.317u     15.617s     24.110w      1 calls
Omega Integrals                     :      0.200u      1.083s      1.016w      1 calls
Amplitudes                          :     88.483u     10.650s     89.029w      1 calls
Elst10                              :      0.000u      0.000s      0.000w      1 calls
Exch10 S^2                          :      0.033u      0.000s      0.007w      1 calls
Exch10                              :      0.017u      0.000s      0.003w      1 calls
Ind20,r                             :      6.467u      0.550s      1.051w      1 calls
Exch-Ind20,r                        :      0.317u      0.050s      0.058w      1 calls
Disp20                              :      0.650u      0.133s      0.117w      1 calls
Exch-Disp20                         :      4.250u      0.233s      7.553w      1 calls
Elst12                              :      0.000u      0.000s      0.001w      1 calls
Exch11                              :      0.267u      0.033s      0.045w      1 calls
Exch12                              :     65.617u      5.233s     11.370w      1 calls
Ind22                               :     14.167u      3.650s      3.197w      1 calls
Disp21                              :      0.367u      0.167s      0.106w      1 calls
Disp22 (SDQ)                        :     18.650u      2.417s      3.210w      1 calls
Disp22 (T)                          :    410.167u      9.433s     62.944w      1 calls

--------------------------------------------------------------------------------------
SAPT: Dimer SCF                     :     25.950u      2.667s      8.078w      1 calls
| Libint2ERI::Libint2ERI            :      0.717u      0.050s      0.470w      2 calls
| JK: (A|mn)                        :      0.867u      0.200s      0.246w      1 calls
| JK: (A|Q)^-1/2                    :      0.817u      0.067s      0.245w      1 calls
| | Libint2ERI::Libint2ERI          :      0.017u      0.000s      0.003w      4 calls
| JK: (Q|mn)                        :      0.533u      0.100s      0.172w      1 calls
| HF: Form core H                   :      3.150u      0.317s      0.878w      1 calls
| HF: Form S/X                      :      0.200u      0.033s      0.048w      1 calls
| HF: Guess                         :      3.850u      0.467s      1.243w      1 calls
| | SAD Guess                       :      3.833u      0.467s      1.237w      1 calls
| HF: Form G                        :      6.617u      0.100s      1.730w     13 calls
| | JK: D                           :      0.050u      0.000s      0.023w     13 calls
| | JK: USO2AO                      :      0.000u      0.000s      0.000w     13 calls
| | JK: JK                          :      6.317u      0.100s      1.620w     13 calls
| | | JK: J                         :      1.033u      0.050s      0.287w     13 calls
| | | | JK: J1                      :      0.400u      0.000s      0.108w     13 calls
| | | | JK: J2                      :      0.583u      0.050s      0.174w     13 calls
| | | JK: K                         :      5.150u      0.033s      1.306w     13 calls
| | | | JK: K1                      :      3.883u      0.033s      0.991w     13 calls
| | | | JK: K2                      :      1.267u      0.000s      0.314w     13 calls
| | JK: AO2USO                      :      0.000u      0.000s      0.000w     13 calls
| HF: Form F                        :      0.083u      0.000s      0.041w     13 calls
| HF: Form D                        :      0.100u      0.000s      0.028w     13 calls
| HF: DIIS                          :      3.033u      0.483s      0.994w     12 calls
| HF: Form C                        :      3.450u      0.317s      1.008w     12 calls
DFMP2 Singles                       :      0.183u      0.000s      0.092w      3 calls
DFMP2 Aia                           :     13.683u      1.883s      7.869w      3 calls
| Libint2ERI::Libint2ERI            :      4.167u      0.150s      3.844w     12 calls
| DFMP2 (A|mn)                      :      6.117u      0.000s      1.962w      3 calls
| DFMP2 (A|mn)C_mi                  :      1.950u      0.017s      0.546w      3 calls
| DFMP2 (A|mi)C_na                  :      0.517u      0.017s      0.150w      3 calls
| DFMP2 Aia Write                   :      0.300u      0.200s      0.157w      3 calls
DFMP2 Bia                           :      2.983u      0.483s      1.342w      3 calls
| DFMP2 Metric                      :      1.800u      0.233s      0.914w      3 calls
| | Libint2ERI::Libint2ERI          :      0.000u      0.000s      0.000w      4 calls
| DFMP2 Aia Read                    :      0.050u      0.017s      0.037w      3 calls
| DFMP2 (ia|A)(A|Q)                 :      0.833u      0.050s      0.254w      3 calls
| DFMP2 Bia Write                   :      0.217u      0.167s      0.125w      3 calls
DFMP2 Energy                        :      1.683u      0.117s      0.556w      3 calls
| DFMP2 Bia Read                    :      0.067u      0.050s      0.043w      6 calls
SAPT: Monomer A SCF                 :     21.050u      2.233s     11.047w      1 calls
| Libint2ERI::Libint2ERI            :      0.750u      0.000s      0.949w      2 calls
| HF: Form core H                   :      2.750u      0.250s      1.280w      1 calls
| HF: Form S/X                      :      0.433u      0.067s      0.233w      1 calls
| HF: Guess                         :      3.000u      0.417s      2.604w      1 calls
| | SAD Guess                       :      3.000u      0.417s      2.603w      1 calls
| HF: Form G                        :      5.883u      0.233s      2.149w     13 calls
| | JK: D                           :      0.117u      0.033s      0.072w     13 calls
| | JK: USO2AO                      :      0.000u      0.000s      0.000w     13 calls
| | JK: JK                          :      5.567u      0.117s      1.943w     13 calls
| | | JK: J                         :      0.967u      0.050s      0.359w     13 calls
| | | | JK: J1                      :      0.433u      0.033s      0.143w     13 calls
[...]
HF: Form F                          :      0.617u      0.067s      0.201w     34 calls
HF: Form D                          :      0.567u      0.050s      0.146w     34 calls
HF: DIIS                            :     40.517u      5.017s     23.945w     31 calls
HF: Form C                          :    102.050u      5.983s     22.657w     31 calls
DFMP2 Singles                       :      0.167u      0.000s      0.050w      3 calls
DFMP2 Aia                           :    239.533u     31.417s    110.991w      3 calls
DFMP2 (A|mn)                        :    141.567u      0.417s     28.030w      6 calls
DFMP2 (A|mn)C_mi                    :     47.750u      0.817s      9.588w      6 calls
DFMP2 (A|mi)C_na                    :     20.833u      0.767s      4.927w      6 calls
DFMP2 Aia Write                     :      2.117u      1.083s     26.388w      6 calls
DFMP2 Bia                           :     36.917u      4.667s     48.170w      3 calls
DFMP2 Metric                        :     14.483u      0.883s      3.469w      3 calls
DFMP2 Aia Read                      :      0.017u      1.133s      0.789w      3 calls
DFMP2 (ia|A)(A|Q)                   :     20.400u      1.017s      4.067w      3 calls
DFMP2 Bia Write                     :      2.000u      1.167s     39.537w      3 calls
DFMP2 Energy                        :    132.733u      3.867s     25.964w      3 calls
DFMP2 Bia Read                      :      0.233u      2.333s      1.729w      6 calls
SAPT: Monomer A SCF                 :    435.200u     20.200s    125.292w      1 calls
SAPT: Monomer B SCF                 :    689.100u     23.783s    161.467w      1 calls

--------------------------------------------------------------------------------------
SAPT: Dimer SCF                     :    477.300u     25.683s    645.453w      1 calls
| Libint2ERI::Libint2ERI            :      5.850u      0.167s      7.151w      2 calls
| JK: (A|mn)                        :     35.133u      7.900s     13.212w      1 calls
| JK: (A|Q)^-1/2                    :     12.983u      1.667s      5.800w      1 calls
| | Libint2ERI::Libint2ERI          :      0.017u      0.000s      0.001w      4 calls
| JK: (Q|mn)                        :     86.150u      4.067s     33.627w      1 calls
| HF: Form core H                   :      0.617u      0.100s      0.126w      1 calls
| HF: Form S/X                      :      1.133u      0.050s      0.177w      1 calls
| HF: Guess                         :      2.850u      0.467s      0.498w      1 calls
| | SAD Guess                       :      2.817u      0.467s      0.493w      1 calls
| HF: Form G                        :    287.017u      4.433s     45.065w     12 calls
| | JK: D                           :      0.033u      0.033s      0.015w     12 calls
| | JK: USO2AO                      :      0.017u      0.000s      0.001w     12 calls
| | JK: JK                          :    286.867u      4.400s     45.025w     12 calls
| | | JK: J                         :     17.767u      0.767s      3.940w     12 calls
| | | | JK: J1                      :     12.383u      0.583s      2.003w     12 calls
| | | | JK: J2                      :      5.250u      0.183s      1.913w     12 calls
| | | JK: K                         :    267.333u      2.883s     40.664w     12 calls
| | | | JK: K1                      :    230.000u      2.533s     34.885w     12 calls
| | | | JK: K2                      :     37.300u      0.350s      5.774w     12 calls
| | JK: AO2USO                      :      0.000u      0.000s      0.000w     12 calls
| HF: Form F                        :      0.067u      0.000s      0.016w     12 calls
| HF: Form D                        :      0.050u      0.000s      0.014w     12 calls
| HF: DIIS                          :     16.300u      1.233s     17.384w     11 calls
| HF: Form C                        :     15.367u      0.233s      2.347w     11 calls
DFMP2 Singles                       :      0.167u      0.000s      0.050w      3 calls
DFMP2 Aia                           :    239.533u     31.417s    110.991w      3 calls
| Libint2ERI::Libint2ERI            :     23.750u      0.850s     17.550w     12 calls
| DFMP2 (A|mn)                      :    141.567u      0.417s     28.030w      6 calls
| DFMP2 (A|mn)C_mi                  :     47.750u      0.817s      9.588w      6 calls
| DFMP2 (A|mi)C_na                  :     20.833u      0.767s      4.927w      6 calls
| DFMP2 Aia Write                   :      2.117u      1.083s     26.388w      6 calls
DFMP2 Bia                           :     36.917u      4.667s     48.170w      3 calls
| DFMP2 Metric                      :     14.483u      0.883s      3.469w      3 calls
| | Libint2ERI::Libint2ERI          :      0.000u      0.000s      0.001w      4 calls
| DFMP2 Aia Read                    :      0.017u      1.133s      0.789w      3 calls
| DFMP2 (ia|A)(A|Q)                 :     20.400u      1.017s      4.067w      3 calls
| DFMP2 Bia Write                   :      2.000u      1.167s     39.537w      3 calls
DFMP2 Energy                        :    132.733u      3.867s     25.964w      3 calls
| DFMP2 Bia Read                    :      0.233u      2.333s      1.729w      6 calls
SAPT: Monomer A SCF                 :    435.200u     20.200s    125.292w      1 calls
| Libint2ERI::Libint2ERI            :     12.117u      0.117s     10.676w      2 calls
| HF: Form core H                   :      0.850u      0.083s      0.219w      1 calls
| HF: Form S/X                      :      4.350u      0.300s      0.917w      1 calls
| HF: Guess                         :      2.650u      0.850s      0.844w      1 calls
| | SAD Guess                       :      2.600u      0.850s      0.831w      1 calls
| HF: Form G                        :    359.783u      2.767s     91.003w      9 calls
| | JK: D                           :      0.350u      0.033s      0.093w      9 calls
| | JK: USO2AO                      :      0.000u      0.000s      0.001w      9 calls
| | JK: JK                          :    359.083u      2.700s     90.817w      9 calls
| | | JK: J                         :     19.617u      0.700s     12.599w      9 calls
| | | | JK: J1                      :     12.550u      0.700s      6.758w      9 calls
| | | | JK: J2                      :      6.833u      0.000s      5.785w      9 calls
| | | JK: K                         :    338.667u      1.600s     77.786w      9 calls
| | | | JK: K1                      :    321.717u      1.100s     73.646w      9 calls
| | | | JK: K2                      :     16.900u      0.500s      4.122w      9 calls
| | JK: AO2USO                      :      0.000u      0.000s      0.000w      9 calls
| HF: Form F                        :      0.267u      0.017s      0.093w      9 calls
| HF: Form D                        :      0.283u      0.033s      0.066w      9 calls
| HF: DIIS                          :      9.417u      1.517s      2.725w      8 calls
| HF: Form C                        :     38.550u      2.817s      9.682w      8 calls
SAPT: Monomer B SCF                 :    689.100u     23.783s    161.467w      1 calls
| Libint2ERI::Libint2ERI            :     11.633u      0.117s     10.517w      2 calls
| HF: Form core H                   :      0.600u      0.067s      0.161w      1 calls
| HF: Form S/X                      :      3.067u      0.233s      0.758w      1 calls
| HF: Guess                         :      2.967u      0.233s      0.700w      1 calls
| | SAD Guess                       :      2.917u      0.233s      0.687w      1 calls
| HF: Form G                        :    599.150u      7.550s    126.154w     13 calls
| | JK: D                           :      0.350u      0.033s      0.079w     13 calls
| | JK: USO2AO                      :      0.017u      0.000s      0.003w     13 calls
| | JK: JK                          :    598.417u      7.483s    125.999w     13 calls
| | | JK: J                         :     28.550u      0.950s     13.427w     13 calls
| | | | JK: J1                      :     18.450u      0.933s      6.949w     13 calls
| | | | JK: J2                      :      9.917u      0.017s      6.390w     13 calls
| | | JK: K                         :    567.817u      5.133s    111.619w     13 calls
| | | | JK: K1                      :    515.667u      4.500s    100.644w     13 calls
| | | | JK: K2                      :     52.083u      0.633s     10.965w     13 calls
| | JK: AO2USO                      :      0.000u      0.000s      0.000w     13 calls
| HF: Form F                        :      0.283u      0.050s      0.092w     13 calls
| HF: Form D                        :      0.233u      0.017s      0.065w     13 calls
| HF: DIIS                          :     14.800u      2.267s      3.837w     12 calls
| HF: Form C                        :     48.133u      2.933s     10.628w     12 calls

**************************************************************************************

Host: cmpsrv002

Timers On : Thu Sep 26 15:25:32 2024
Timers Off: Thu Sep 26 15:44:33 2024

Wall Time:     1140.99 seconds

                                                       Time (seconds)
Module                                       User      System        Wall        Calls
SAPT: Dimer SCF                     :    550.700u     26.667s    700.898w      1 calls
Libint2ERI::Libint2ERI              :     54.917u      1.350s     44.740w     26 calls
JK: (A|mn)                          :     36.167u      8.133s     15.060w      1 calls
JK: (A|Q)^-1/2                      :     13.033u      1.017s      3.503w      1 calls
JK: (Q|mn)                          :     81.817u      3.967s     34.638w      1 calls
HF: Form core H                     :      2.083u      0.433s      0.610w      3 calls
HF: Form S/X                        :     11.933u      0.850s      2.695w      3 calls
HF: Guess                           :     13.150u      2.033s      3.438w      3 calls
SAD Guess                           :     13.033u      2.000s      3.406w      3 calls
HF: Form G                          :   1332.867u     15.683s    275.536w     35 calls
JK: D                               :      0.733u      0.067s      0.193w     35 calls
JK: USO2AO                          :      0.050u      0.000s      0.005w     35 calls
JK: JK                              :   1331.000u     15.483s    275.044w     35 calls
JK: J                               :     72.400u      2.450s     34.354w     35 calls
JK: J1                              :     48.917u      2.367s     17.779w     35 calls
JK: J2                              :     23.033u      0.067s     16.407w     35 calls
JK: K                               :   1253.417u     10.533s    238.811w     35 calls
JK: K1                              :   1143.700u      9.000s    217.661w     35 calls
JK: K2                              :    109.567u      1.533s     21.123w     35 calls
JK: AO2USO                          :      0.000u      0.000s      0.000w     35 calls
HF: Form F                          :      0.600u      0.083s      0.187w     35 calls
HF: Form D                          :      0.617u      0.050s      0.171w     35 calls
HF: DIIS                            :     42.667u      5.217s     25.825w     32 calls
HF: Form C                          :    109.250u      6.433s     23.964w     32 calls
DFMP2 Singles                       :      0.233u      0.017s      0.087w      3 calls
DFMP2 Aia                           :    267.633u     33.283s    104.679w      3 calls
DFMP2 (A|mn)                        :    163.000u      0.033s     29.334w      6 calls
DFMP2 (A|mn)C_mi                    :     48.367u      0.817s      9.462w      6 calls
DFMP2 (A|mi)C_na                    :     20.983u      0.700s      5.350w      6 calls
DFMP2 Aia Write                     :      2.683u      1.700s     22.098w      6 calls
DFMP2 Bia                           :     45.983u      6.833s     12.791w      3 calls
DFMP2 Metric                        :     21.633u      1.483s      4.608w      3 calls
DFMP2 Aia Read                      :      0.233u      1.383s      1.008w      3 calls
DFMP2 (ia|A)(A|Q)                   :     22.683u      1.100s      5.032w      3 calls
DFMP2 Bia Write                     :      1.350u      2.367s      1.644w      3 calls
DFMP2 Energy                        :    124.333u      3.917s     27.144w      3 calls
DFMP2 Bia Read                      :      0.067u      2.333s      2.132w      6 calls
SAPT: Monomer A SCF                 :    461.817u     17.433s    126.230w      1 calls
SAPT: Monomer B SCF                 :    692.217u     23.533s    164.873w      1 calls

--------------------------------------------------------------------------------------
SAPT: Dimer SCF                     :    550.700u     26.667s    700.898w      1 calls
| Libint2ERI::Libint2ERI            :      6.050u      0.133s      7.569w      2 calls
| JK: (A|mn)                        :     36.167u      8.133s     15.060w      1 calls
| JK: (A|Q)^-1/2                    :     13.033u      1.017s      3.503w      1 calls
| | Libint2ERI::Libint2ERI          :      0.000u      0.000s      0.001w      4 calls
| JK: (Q|mn)                        :     81.817u      3.967s     34.638w      1 calls
| HF: Form core H                   :      0.550u      0.050s      0.092w      1 calls
| HF: Form S/X                      :      2.000u      0.100s      0.314w      1 calls
| HF: Guess                         :      3.483u      0.667s      0.631w      1 calls
| | SAD Guess                       :      3.450u      0.650s      0.623w      1 calls
| HF: Form G                        :    349.183u      5.583s     57.115w     13 calls
| | JK: D                           :      0.167u      0.017s      0.025w     13 calls
| | JK: USO2AO                      :      0.017u      0.000s      0.001w     13 calls
| | JK: JK                          :    348.833u      5.550s     57.050w     13 calls
| | | JK: J                         :     23.883u      0.883s      7.388w     13 calls
| | | | JK: J1                      :     17.233u      0.817s      3.772w     13 calls
| | | | JK: J2                      :      6.500u      0.050s      3.577w     13 calls
| | | JK: K                         :    322.583u      3.717s     49.148w     13 calls
| | | | JK: K1                      :    286.067u      3.583s     43.649w     13 calls
| | | | JK: K2                      :     36.483u      0.133s      5.493w     13 calls
| | JK: AO2USO                      :      0.000u      0.000s      0.000w     13 calls
| HF: Form F                        :      0.100u      0.017s      0.018w     13 calls
| HF: Form D                        :      0.150u      0.000s      0.028w     13 calls
| HF: DIIS                          :     18.900u      1.550s     19.727w     12 calls
| HF: Form C                        :     22.967u      0.750s      4.038w     12 calls
DFMP2 Singles                       :      0.233u      0.017s      0.087w      3 calls
DFMP2 Aia                           :    267.633u     33.283s    104.679w      3 calls
| Libint2ERI::Libint2ERI            :     28.517u      0.983s     16.377w     12 calls
| DFMP2 (A|mn)                      :    163.000u      0.033s     29.334w      6 calls
| DFMP2 (A|mn)C_mi                  :     48.367u      0.817s      9.462w      6 calls
| DFMP2 (A|mi)C_na                  :     20.983u      0.700s      5.350w      6 calls
| DFMP2 Aia Write                   :      2.683u      1.700s     22.098w      6 calls
DFMP2 Bia                           :     45.983u      6.833s     12.791w      3 calls
| DFMP2 Metric                      :     21.633u      1.483s      4.608w      3 calls
| | Libint2ERI::Libint2ERI          :      0.000u      0.000s      0.001w      4 calls
| DFMP2 Aia Read                    :      0.233u      1.383s      1.008w      3 calls
| DFMP2 (ia|A)(A|Q)                 :     22.683u      1.100s      5.032w      3 calls
| DFMP2 Bia Write                   :      1.350u      2.367s      1.644w      3 calls
DFMP2 Energy                        :    124.333u      3.917s     27.144w      3 calls
| DFMP2 Bia Read                    :      0.067u      2.333s      2.132w      6 calls
SAPT: Monomer A SCF                 :    461.817u     17.433s    126.230w      1 calls
| Libint2ERI::Libint2ERI            :     10.683u      0.133s      9.807w      2 calls
| HF: Form core H                   :      0.800u      0.167s      0.253w      1 calls
| HF: Form S/X                      :      5.033u      0.417s      1.130w      1 calls
| HF: Guess                         :      3.983u      0.850s      1.204w      1 calls
| | SAD Guess                       :      3.917u      0.850s      1.185w      1 calls
| HF: Form G                        :    379.900u      2.383s     91.494w      9 calls
| | JK: D                           :      0.183u      0.017s      0.061w      9 calls
| | JK: USO2AO                      :      0.017u      0.000s      0.001w      9 calls
| | JK: JK                          :    379.267u      2.283s     91.305w      9 calls
| | | JK: J                         :     19.317u      0.517s     12.136w      9 calls
| | | | JK: J1                      :     12.383u      0.517s      6.129w      9 calls
| | | | JK: J2                      :      6.833u      0.000s      5.947w      9 calls
| | | JK: K                         :    359.267u      1.400s     78.800w      9 calls
| | | | JK: K1                      :    339.800u      0.883s     74.186w      9 calls
| | | | JK: K2                      :     19.450u      0.517s      4.602w      9 calls
| | JK: AO2USO                      :      0.000u      0.000s      0.000w      9 calls
| HF: Form F                        :      0.250u      0.033s      0.081w      9 calls
| HF: Form D                        :      0.200u      0.017s      0.061w      9 calls
| HF: DIIS                          :      9.900u      1.450s      2.638w      8 calls
| HF: Form C                        :     42.133u      3.067s     10.375w      8 calls
SAPT: Monomer B SCF                 :    692.217u     23.533s    164.873w      1 calls
| Libint2ERI::Libint2ERI            :      9.667u      0.100s     10.984w      2 calls
| HF: Form core H                   :      0.733u      0.217s      0.265w      1 calls
| HF: Form S/X                      :      4.900u      0.333s      1.250w      1 calls
| HF: Guess                         :      5.683u      0.517s      1.603w      1 calls
| | SAD Guess                       :      5.667u      0.500s      1.598w      1 calls
| HF: Form G                        :    603.783u      7.717s    126.927w     13 calls
| | JK: D                           :      0.383u      0.033s      0.108w     13 calls
| | JK: USO2AO                      :      0.017u      0.000s      0.002w     13 calls
| | JK: JK                          :    602.900u      7.650s    126.689w     13 calls
| | | JK: J                         :     29.200u      1.050s     14.830w     13 calls
| | | | JK: J1                      :     19.300u      1.033s      7.878w     13 calls
| | | | JK: J2                      :      9.700u      0.017s      6.883w     13 calls
| | | JK: K                         :    571.567u      5.417s    110.862w     13 calls
| | | | JK: K1                      :    517.833u      4.533s     99.826w     13 calls
| | | | JK: K2                      :     53.633u      0.883s     11.028w     13 calls
| | JK: AO2USO                      :      0.000u      0.000s      0.000w     13 calls
| HF: Form F                        :      0.250u      0.033s      0.088w     13 calls
| HF: Form D                        :      0.267u      0.033s      0.082w     13 calls
| HF: DIIS                          :     13.867u      2.217s      3.459w     12 calls
| HF: Form C                        :     44.150u      2.617s      9.552w     12 calls

**************************************************************************************
