
    -----------------------------------------------------------------------
          Psi4: An Open-Source Ab Initio Electronic Structure Package
                               Psi4 1.9.1 release

                         Git: Rev {} zzzzzzz 


    D. G. A. Smith, L. A. Burns, A. C. Simmonett, R. M. Parrish,
    M. C. Schieber, R. Galvelis, P. Kraus, H. Kruse, R. Di Remigio,
    A. Alenaizan, A. M. James, S. Lehtola, J. P. Misiewicz, M. Scheurer,
    R. A. Shaw, J. B. Schriber, Y. Xie, Z. L. Glick, D. A. Sirianni,
    J. S. O'Brien, J. M. Waldrop, A. Kumar, E. G. Hohenstein,
    B. P. Pritchard, B. R. Brooks, H. F. Schaefer III, A. Yu. Sokolov,
    K. Patkowski, A. E. DePrince III, U. Bozkaya, R. A. King,
    F. A. Evangelista, J. M. Turney, T. D. Crawford, C. D. Sherrill,
    J. Chem. Phys. 152(18) 184108 (2020). https://doi.org/10.1063/5.0006002

                            Additional Code Authors
    E. T. Seidl, C. L. Janssen, E. F. Valeev, M. L. Leininger,
    J. F. Gonthier, R. M. Richard, H. R. McAlexander, M. Saitow, X. Wang,
    P. Verma, M. H. Lechner, A. Jiang, S. Behnle, A. G. Heide,
    M. F. Herbst, and D. L. Poole

             Previous Authors, Complete List of Code Contributors,
                       and Citations for Specific Modules
    https://github.com/psi4/psi4/blob/master/codemeta.json
    https://github.com/psi4/psi4/graphs/contributors
    http://psicode.org/psi4manual/master/introduction.html#citing-psifour

    -----------------------------------------------------------------------


    Psi4 started on: Thursday, 19 September 2024 01:57PM

    Process ID: 605152
    Host:       cmpsrv002
    PSIDATADIR: /home/vance/anaconda3/envs/p4env/share/psi4
    Memory:     500.0 MiB
    Threads:    4
    
  ==> Input File <==

--------------------------------------------------------------------------
#charge=0 charge_a=0 charge_b=0 selection_a=1-2 selection_b=3-6 scaling=0.9 benchmark_Eint=-8.705 benchmark_unit=kcal/mol group=XH-N
set_num_threads(4)
memory 8 GB
basis this_basis {
    assign    aug-cc-pVQZ
}

molecule {
     0 1
    --
     0 1
     H        0.00000       -0.31269        0.00000
    Cl       -0.00000        1.03066        0.00000
    --
     0 1
     N        0.00000       -1.86230        0.00000
     H       -0.47318       -2.22131        0.81958
     H       -0.47318       -2.22131       -0.81958
     H        0.94637       -2.22131        0.00000
}

set {
    sapt_dft_functional     PBE0
    scf_type                DF
    freeze_core             true
    sapt_dft_grac_shift_a    0.116251
    sapt_dft_grac_shift_b    0.113162
    sapt_dft_do_hybrid      true
    do_ind_exch_sinf        true
    do_disp_exch_sinf       true
}

nrg = energy('sapt(DFT)')

eelst = psi4.variable('SAPT ELST ENERGY')
eexch = psi4.variable('SAPT EXCH ENERGY')
eind = psi4.variable('SAPT IND ENERGY')
edisp = psi4.variable('SAPT DISP ENERGY')
esapt = psi4.variable('SAPT TOTAL ENERGY')
eind20r = psi4.variable('SAPT IND20,R ENERGY')
eexind20r = psi4.variable('SAPT EXCH-IND20,R ENERGY')
eind20u = psi4.variable('SAPT IND20,U ENERGY')
eexind20u = psi4.variable('SAPT EXCH-IND20,U ENERGY')
edisp20 = psi4.variable('SAPT DISP20 ENERGY')
eexdisp20 = psi4.variable('SAPT EXCH-DISP20 ENERGY')
eexch10 = psi4.variable('SAPT EXCH10 ENERGY')
eexch10s2 = psi4.variable('SAPT EXCH10(S^2) ENERGY')
print('sapt elst energy =', eelst)
print('sapt total induction energy =', eind)
print('sapt total dispersion energy =', edisp)
print('sapt total energy =', esapt)
print('sapt ind20,r energy =', eind20r)
print('sapt exch-ind20,r energy =', eexind20r)
print('sapt ind20,u energy =', eind20u)
print('sapt exch-ind20,u energy =', eexind20u)
print('sapt disp20 (u or r?) energy =', edisp20)
print('sapt exch-disp20 (u or r?) energy =', eexdisp20)
print('sapt exch10 (u or r? which s?) energy =', eexch10)
print('sapt exch10 s^2 (u or r?) energy =', eexch10s2)
--------------------------------------------------------------------------
  Threads set to 4 by Python driver.

  Memory set to   7.451 GiB by Python driver.

Scratch directory: /scratch2/vance/psi4/

*** tstart() called on cmpsrv002
*** at Thu Sep 19 13:57:24 2024

  SAPT does not make use of molecular symmetry, further calculations in C1 point group.

         ---------------------------------------------------------
                            SAPT(DFT) Procedure                    

                           by Daniel G. A. Smith                   
         ---------------------------------------------------------

Warning! The default value of SAPT_DFT_EXCH_DISP_SCALE_SCHEME has changed from DISP to FIXED. Please be careful comparing results with earlier versions. 

  ==> Algorithm <==

   SAPT DFT Functional             PBE0
   Monomer A GRAC Shift        0.116251
   Monomer B GRAC Shift        0.113162
   Delta HF                        True
   JK Algorithm                      DF

   Required computations:
     HF  (Dimer)
     HF  (Monomer A)
     HF  (Monomer B)
     DFT (Monomer A)
     DFT (Monomer B)

   => Libint2 <=

    Primary   basis highest AM E, G, H:  6, 6, 3
    Auxiliary basis highest AM E, G, H:  7, 7, 4
    Onebody   basis highest AM E, G, H:  -, -, -
    Solid Harmonics ordering:            Gaussian

*** tstart() called on cmpsrv002
*** at Thu Sep 19 13:57:24 2024

   => Loading Basis Set <=

    Name: THIS_BASIS
    Role: ORBITAL
    Keyword: BASIS
    atoms 1, 4-6 entry H          line    40 file /home/vance/anaconda3/envs/p4env/share/psi4/basis/aug-cc-pvqz.gbs 
    atoms 2      entry CL         line  1222 file /home/vance/anaconda3/envs/p4env/share/psi4/basis/aug-cc-pvqz.gbs 
    atoms 3      entry N          line   363 file /home/vance/anaconda3/envs/p4env/share/psi4/basis/aug-cc-pvqz.gbs 


         ---------------------------------------------------------
                         SAPT(DFT): delta HF Dimer                 
         ---------------------------------------------------------
                                   SCF
               by Justin Turney, Rob Parrish, Andy Simmonett
                          and Daniel G. A. Smith
                              RHF Reference
                        4 Threads,   7629 MiB Core
         ---------------------------------------------------------

  ==> Geometry <==

    Molecular point group: c1
    Full point group: Cs

    Geometry (in Angstrom), charge = 0, multiplicity = 1:

       Center              X                  Y                   Z               Mass       
    ------------   -----------------  -----------------  -----------------  -----------------
         H           -0.000000190144    -0.368004758866     0.000000000000     1.007825032230
         CL          -0.000000190144     0.975345241134     0.000000000000    34.968852682000
         N           -0.000000190144    -1.917614758866     0.000000000000    14.003074004430
         H           -0.473180190144    -2.276624758866     0.819580000000     1.007825032230
         H           -0.473180190144    -2.276624758866    -0.819580000000     1.007825032230
         H            0.946369809856    -2.276624758866     0.000000000000     1.007825032230

  Running in c1 symmetry.

  Rotational constants: A =      6.22544  B =      0.16540  C =      0.16540 [cm^-1]
  Rotational constants: A = 186633.95025  B =   4958.59929  C =   4958.59890 [MHz]
  Nuclear repulsion =   51.515644820181649

  Charge       = 0
  Multiplicity = 1
  Electrons    = 28
  Nalpha       = 14
  Nbeta        = 14

  ==> Algorithm <==

  SCF Algorithm Type is DF.
  DIIS enabled.
  MOM disabled.
  Fractional occupation disabled.
  Guess Type is SAD.
  Energy threshold   = 1.00e-08
  Density threshold  = 1.00e-08
  Integral threshold = 1.00e-12

  ==> Primary Basis <==

  Basis Set: THIS_BASIS
    Blend: AUG-CC-PVQZ
    Number of shells: 98
    Number of basis functions: 348
    Number of Cartesian functions: 434
    Spherical Harmonics?: true
    Max angular momentum: 4

   => Loading Basis Set <=

    Name: (THIS_BASIS AUX)
    Role: JKFIT
    Keyword: DF_BASIS_SCF
    atoms 1, 4-6 entry H          line    70 file /home/vance/anaconda3/envs/p4env/share/psi4/basis/aug-cc-pvqz-jkfit.gbs 
    atoms 2      entry CL         line   904 file /home/vance/anaconda3/envs/p4env/share/psi4/basis/aug-cc-pvqz-jkfit.gbs 
    atoms 3      entry N          line   248 file /home/vance/anaconda3/envs/p4env/share/psi4/basis/aug-cc-pvqz-jkfit.gbs 

  ==> Integral Setup <==

  ==> DiskDFJK: Density-Fitted J/K Matrices <==

    J tasked:                  Yes
    K tasked:                  Yes
    wK tasked:                  No
    OpenMP threads:              4
    Integrals threads:           4
    Memory [MiB]:             5722
    Algorithm:                Core
    Integral Cache:           SAVE
    Schwarz Cutoff:          1E-12
    Fitting Condition:       1E-10

   => Auxiliary Basis Set <=

  Basis Set: (THIS_BASIS AUX)
    Blend: AUG-CC-PVQZ-JKFIT
    Number of shells: 152
    Number of basis functions: 630
    Number of Cartesian functions: 849
    Spherical Harmonics?: true
    Max angular momentum: 5

  Minimum eigenvalue in the overlap matrix is 8.3930725619E-06.
  Reciprocal condition number of the overlap matrix is 6.8840594920E-07.
    Using symmetric orthogonalization.

  ==> Pre-Iterations <==

  SCF Guess: Superposition of Atomic Densities via on-the-fly atomic UHF (no occupation information).

   -------------------------
    Irrep   Nso     Nmo    
   -------------------------
     A        348     348 
   -------------------------
    Total     348     348
   -------------------------

  ==> Iterations <==

                           Total Energy        Delta E     RMS |[F,P]|

   @DF-RHF iter SAD:  -515.76350566784708   -5.15764e+02   0.00000e+00 
   @DF-RHF iter   1:  -516.24713331004784   -4.83628e-01   1.26904e-03 DIIS/ADIIS
   @DF-RHF iter   2:  -516.32010057127354   -7.29673e-02   6.21580e-04 DIIS/ADIIS
   @DF-RHF iter   3:  -516.33743072726281   -1.73302e-02   9.38448e-05 DIIS
   @DF-RHF iter   4:  -516.33832743559515   -8.96708e-04   3.43911e-05 DIIS
   @DF-RHF iter   5:  -516.33842082472484   -9.33891e-05   7.41157e-06 DIIS
   @DF-RHF iter   6:  -516.33843006135226   -9.23663e-06   1.62461e-06 DIIS
   @DF-RHF iter   7:  -516.33843059889068   -5.37538e-07   4.97597e-07 DIIS
   @DF-RHF iter   8:  -516.33843064258235   -4.36917e-08   1.27231e-07 DIIS
   @DF-RHF iter   9:  -516.33843064484643   -2.26407e-09   2.58861e-08 DIIS
   @DF-RHF iter  10:  -516.33843064496057   -1.14142e-10   5.12013e-09 DIIS
  Energy and wave function converged.


  ==> Post-Iterations <==

    Orbital Energies [Eh]
    ---------------------

    Doubly Occupied:                                                      

       1A   -104.775586     2A    -15.595919     3A    -10.503088  
       4A     -7.970095     5A     -7.968884     6A     -7.968884  
       7A     -1.205715     8A     -1.048365     9A     -0.688952  
      10A     -0.688950    11A     -0.619840    12A     -0.440205  
      13A     -0.418967    14A     -0.418967  

    Virtual:                                                              

      15A      0.014825    16A      0.036864    17A      0.036864  
      18A      0.052387    19A      0.105559    20A      0.109430  
      21A      0.116217    22A      0.116217    23A      0.126010  
      24A      0.126010    25A      0.141676    26A      0.163459  
      27A      0.163459    28A      0.182482    29A      0.198552  
      30A      0.198552    31A      0.266830    32A      0.268899  
      33A      0.288090    34A      0.290694    35A      0.290695  
      36A      0.305745    37A      0.305746    38A      0.315622  
      39A      0.327392    40A      0.329360    41A      0.329360  
      42A      0.357752    43A      0.357753    44A      0.381529  
      45A      0.382636    46A      0.382636    47A      0.430729  
      48A      0.431320    49A      0.431320    50A      0.459764  
      51A      0.459764    52A      0.470333    53A      0.491870  
      54A      0.536027    55A      0.536028    56A      0.604257  
      57A      0.604257    58A      0.614324    59A      0.658377  
      60A      0.673736    61A      0.674440    62A      0.674440  
      63A      0.693230    64A      0.693230    65A      0.713344  
      66A      0.713344    67A      0.713396    68A      0.718096  
      69A      0.749279    70A      0.754868    71A      0.754868  
      72A      0.780280    73A      0.780281    74A      0.808228  
      75A      0.817379    76A      0.817379    77A      0.841964  
      78A      0.873176    79A      0.883610    80A      0.883611  
      81A      0.916800    82A      0.929424    83A      0.929425  
      84A      0.944632    85A      0.944632    86A      0.963598  
      87A      0.979143    88A      0.979143    89A      0.993693  
      90A      1.067547    91A      1.067547    92A      1.096629  
      93A      1.107835    94A      1.107835    95A      1.197747  
      96A      1.258118    97A      1.293631    98A      1.293632  
      99A      1.300191   100A      1.300191   101A      1.336722  
     102A      1.357556   103A      1.364857   104A      1.364857  
     105A      1.414631   106A      1.414632   107A      1.419672  
     108A      1.459538   109A      1.461524   110A      1.529047  
     111A      1.529049   112A      1.551043   113A      1.552030  
     114A      1.552030   115A      1.657793   116A      1.657793  
     117A      1.703368   118A      1.703369   119A      1.710958  
     120A      1.721466   121A      1.766221   122A      1.773996  
     123A      1.773998   124A      1.784791   125A      1.812537  
     126A      1.812538   127A      1.820840   128A      1.820840  
     129A      1.896220   130A      1.896221   131A      1.898764  
     132A      1.910975   133A      1.910975   134A      1.931650  
     135A      1.949092   136A      1.971336   137A      1.971336  
     138A      2.031862   139A      2.059597   140A      2.059597  
     141A      2.068794   142A      2.076486   143A      2.076486  
     144A      2.089729   145A      2.108483   146A      2.111019  
     147A      2.111019   148A      2.123445   149A      2.154907  
     150A      2.154908   151A      2.155491   152A      2.203642  
     153A      2.249259   154A      2.249260   155A      2.266642  
     156A      2.326561   157A      2.326561   158A      2.389546  
     159A      2.432782   160A      2.432783   161A      2.444036  
     162A      2.466672   163A      2.466673   164A      2.501730  
     165A      2.572356   166A      2.574371   167A      2.574373  
     168A      2.591005   169A      2.591008   170A      2.660864  
     171A      2.660865   172A      2.677195   173A      2.819302  
     174A      2.849552   175A      2.849552   176A      2.886042  
     177A      2.907109   178A      2.907110   179A      3.007707  
     180A      3.007709   181A      3.015319   182A      3.022330  
     183A      3.119114   184A      3.122794   185A      3.122794  
     186A      3.164571   187A      3.190511   188A      3.190512  
     189A      3.235897   190A      3.235898   191A      3.262519  
     192A      3.301268   193A      3.301268   194A      3.477651  
     195A      3.480207   196A      3.480208   197A      3.558963  
     198A      3.558965   199A      3.612481   200A      3.676590  
     201A      3.720138   202A      3.771810   203A      3.771812  
     204A      3.794679   205A      3.794680   206A      3.953975  
     207A      3.972299   208A      3.972300   209A      4.043085  
     210A      4.133565   211A      4.179000   212A      4.194024  
     213A      4.194026   214A      4.235306   215A      4.235309  
     216A      4.312607   217A      4.356961   218A      4.356961  
     219A      4.448119   220A      4.448119   221A      4.526514  
     222A      4.614461   223A      4.614463   224A      4.670832  
     225A      4.764240   226A      4.772714   227A      4.774417  
     228A      4.774417   229A      4.779286   230A      4.782894  
     231A      4.782894   232A      4.803040   233A      4.803040  
     234A      4.804043   235A      4.808139   236A      4.928707  
     237A      4.928708   238A      4.965834   239A      4.988519  
     240A      4.988521   241A      5.056697   242A      5.117556  
     243A      5.117556   244A      5.144004   245A      5.144005  
     246A      5.226602   247A      5.226602   248A      5.396534  
     249A      5.396535   250A      5.424423   251A      5.453827  
     252A      5.872302   253A      5.872305   254A      5.914376  
     255A      6.246617   256A      6.754797   257A      6.760927  
     258A      6.769521   259A      6.769521   260A      6.851753  
     261A      6.922884   262A      6.922888   263A      6.991271  
     264A      6.991275   265A      7.283685   266A      7.283687  
     267A      7.330903   268A      7.367995   269A      7.398112  
     270A      7.398116   271A      7.440798   272A      7.636999  
     273A      7.637004   274A      7.654809   275A      7.735067  
     276A      7.892920   277A      7.892928   278A      8.011060  
     279A      8.011066   280A      8.097966   281A      8.097972  
     282A      8.125372   283A      8.257530   284A      8.257534  
     285A      8.306127   286A      8.425776   287A      8.425778  
     288A      8.437502   289A      8.559284   290A      8.569890  
     291A      8.569893   292A      8.762259   293A      8.762262  
     294A      8.866812   295A      8.871583   296A      8.871587  
     297A      8.912617   298A      8.912618   299A      8.936512  
     300A      8.939506   301A      9.033499   302A      9.048585  
     303A      9.048589   304A      9.079385   305A      9.180574  
     306A      9.180575   307A      9.374314   308A      9.374320  
     309A      9.524690   310A      9.629239   311A      9.629243  
     312A      9.670638   313A      9.706479   314A      9.726513  
     315A      9.726514   316A      9.770497   317A      9.770501  
     318A      9.960946   319A      9.960952   320A      9.997746  
     321A     10.002419   322A     10.165553   323A     10.165555  
     324A     10.414351   325A     10.528081   326A     10.528083  
     327A     10.753947   328A     10.753952   329A     10.825443  
     330A     10.831430   331A     11.020617   332A     11.020621  
     333A     11.327559   334A     11.834983   335A     12.135667  
     336A     12.165562   337A     12.165570   338A     12.453870  
     339A     12.453885   340A     12.504602   341A     13.019101  
     342A     13.145393   343A     13.145403   344A     15.077934  
     345A     15.077946   346A     15.204557   347A     26.698566  
     348A     37.429070  

    Final Occupation by Irrep:
              A 
    DOCC [    14 ]
    NA   [    14 ]
    NB   [    14 ]

  @DF-RHF Final Energy:  -516.33843064496057

   => Energetics <=

    Nuclear Repulsion Energy =             51.5156448201816488
    One-Electron Energy =                -815.0833133130624901
    Two-Electron Energy =                 247.2292378479201886
    Total Energy =                       -516.3384306449605674

Computation Completed


Properties will be evaluated at   0.000000,   0.000000,   0.000000 [a0]

Properties computed using the SCF density matrix


 Multipole Moments:

 ------------------------------------------------------------------------------------
     Multipole            Electronic (a.u.)      Nuclear  (a.u.)        Total (a.u.)
 ------------------------------------------------------------------------------------

 L = 1.  Multiply by 2.5417464519 to convert [e a0] to [Debye]
 Dipole X            :         -0.0000056            0.0000088            0.0000032
 Dipole Y            :          5.6028156           -7.6350855           -2.0322699
 Dipole Z            :          0.0000000            0.0000000            0.0000000
 Magnitude           :                                                    2.0322699

 ------------------------------------------------------------------------------------

*** tstop() called on cmpsrv002 at Thu Sep 19 13:58:03 2024
Module time:
	user time   =      28.21 seconds =       0.47 minutes
	system time =       3.66 seconds =       0.06 minutes
	total time  =         39 seconds =       0.65 minutes
Total time:
	user time   =      28.21 seconds =       0.47 minutes
	system time =       3.66 seconds =       0.06 minutes
	total time  =         39 seconds =       0.65 minutes
   => Libint2 <=

    Primary   basis highest AM E, G, H:  6, 6, 3
    Auxiliary basis highest AM E, G, H:  7, 7, 4
    Onebody   basis highest AM E, G, H:  -, -, -
    Solid Harmonics ordering:            Gaussian

*** tstart() called on cmpsrv002
*** at Thu Sep 19 13:58:03 2024

   => Loading Basis Set <=

    Name: THIS_BASIS
    Role: ORBITAL
    Keyword: BASIS
    atoms 1, 4-6 entry H          line    40 file /home/vance/anaconda3/envs/p4env/share/psi4/basis/aug-cc-pvqz.gbs 
    atoms 2      entry CL         line  1222 file /home/vance/anaconda3/envs/p4env/share/psi4/basis/aug-cc-pvqz.gbs 
    atoms 3      entry N          line   363 file /home/vance/anaconda3/envs/p4env/share/psi4/basis/aug-cc-pvqz.gbs 


         ---------------------------------------------------------
                       SAPT(DFT): delta HF Monomer A               
         ---------------------------------------------------------
                                   SCF
               by Justin Turney, Rob Parrish, Andy Simmonett
                          and Daniel G. A. Smith
                              RHF Reference
                        4 Threads,   7629 MiB Core
         ---------------------------------------------------------

  ==> Geometry <==

    Molecular point group: c1
    Full point group: Cs

    Geometry (in Angstrom), charge = 0, multiplicity = 1:

       Center              X                  Y                   Z               Mass       
    ------------   -----------------  -----------------  -----------------  -----------------
         H           -0.000000190144    -0.368004758866     0.000000000000     1.007825032230
         CL          -0.000000190144     0.975345241134     0.000000000000    34.968852682000
      Gh(N)          -0.000000190144    -1.917614758866     0.000000000000    14.003074004430
      Gh(H)          -0.473180190144    -2.276624758866     0.819580000000     1.007825032230
      Gh(H)          -0.473180190144    -2.276624758866    -0.819580000000     1.007825032230
      Gh(H)           0.946369809856    -2.276624758866     0.000000000000     1.007825032230

  Running in c1 symmetry.

  Rotational constants: A =      6.22544  B =      0.16540  C =      0.16540 [cm^-1]
  Rotational constants: A = 186633.95025  B =   4958.59929  C =   4958.59890 [MHz]
  Nuclear repulsion =    6.696700473733578

  Charge       = 0
  Multiplicity = 1
  Electrons    = 18
  Nalpha       = 9
  Nbeta        = 9

  ==> Algorithm <==

  SCF Algorithm Type is DF.
  DIIS enabled.
  MOM disabled.
  Fractional occupation disabled.
  Guess Type is SAD.
  Energy threshold   = 1.00e-08
  Density threshold  = 1.00e-08
  Integral threshold = 1.00e-12

  ==> Primary Basis <==

  Basis Set: THIS_BASIS
    Blend: AUG-CC-PVQZ
    Number of shells: 98
    Number of basis functions: 348
    Number of Cartesian functions: 434
    Spherical Harmonics?: true
    Max angular momentum: 4

   => Loading Basis Set <=

    Name: (THIS_BASIS AUX)
    Role: JKFIT
    Keyword: DF_BASIS_SCF
    atoms 1, 4-6 entry H          line    70 file /home/vance/anaconda3/envs/p4env/share/psi4/basis/aug-cc-pvqz-jkfit.gbs 
    atoms 2      entry CL         line   904 file /home/vance/anaconda3/envs/p4env/share/psi4/basis/aug-cc-pvqz-jkfit.gbs 
    atoms 3      entry N          line   248 file /home/vance/anaconda3/envs/p4env/share/psi4/basis/aug-cc-pvqz-jkfit.gbs 

  ==> Integral Setup <==

  ==> DiskDFJK: Density-Fitted J/K Matrices <==

    J tasked:                  Yes
    K tasked:                  Yes
    wK tasked:                  No
    OpenMP threads:              4
    Integrals threads:           4
    Memory [MiB]:             5722
    Algorithm:                Core
    Integral Cache:           SAVE
    Schwarz Cutoff:          1E-12
    Fitting Condition:       1E-10

   => Auxiliary Basis Set <=

  Basis Set: (THIS_BASIS AUX)
    Blend: AUG-CC-PVQZ-JKFIT
    Number of shells: 152
    Number of basis functions: 630
    Number of Cartesian functions: 849
    Spherical Harmonics?: true
    Max angular momentum: 5

  Minimum eigenvalue in the overlap matrix is 8.3930725619E-06.
  Reciprocal condition number of the overlap matrix is 6.8840594920E-07.
    Using symmetric orthogonalization.

  ==> Pre-Iterations <==

  SCF Guess: Superposition of Atomic Densities via on-the-fly atomic UHF (no occupation information).

   -------------------------
    Irrep   Nso     Nmo    
   -------------------------
     A        348     348 
   -------------------------
    Total     348     348
   -------------------------

  ==> Iterations <==

                           Total Energy        Delta E     RMS |[F,P]|

   @DF-RHF iter SAD:  -459.87084647504651   -4.59871e+02   0.00000e+00 
   @DF-RHF iter   1:  -460.08497700343793   -2.14131e-01   5.44998e-04 DIIS/ADIIS
   @DF-RHF iter   2:  -460.10488849009755   -1.99115e-02   2.29960e-04 DIIS/ADIIS
   @DF-RHF iter   3:  -460.10764970625280   -2.76122e-03   4.35730e-05 DIIS
   @DF-RHF iter   4:  -460.10799419081616   -3.44485e-04   1.25217e-05 DIIS
   @DF-RHF iter   5:  -460.10802775547484   -3.35647e-05   1.76541e-06 DIIS
   @DF-RHF iter   6:  -460.10802833651655   -5.81042e-07   3.80635e-07 DIIS
   @DF-RHF iter   7:  -460.10802835101657   -1.45000e-08   8.64879e-08 DIIS
   @DF-RHF iter   8:  -460.10802835218300   -1.16643e-09   1.69195e-08 DIIS
   @DF-RHF iter   9:  -460.10802835222677   -4.37694e-11   1.76106e-09 DIIS
  Energy and wave function converged.


  ==> Post-Iterations <==

    Orbital Energies [Eh]
    ---------------------

    Doubly Occupied:                                                      

       1A   -104.852116     2A    -10.576159     3A     -8.043294  
       4A     -8.041575     5A     -8.041575     6A     -1.105209  
       7A     -0.610899     8A     -0.475368     9A     -0.475368  

    Virtual:                                                              

      10A      0.018959    11A      0.042277    12A      0.042277  
      13A      0.044687    14A      0.084774    15A      0.099865  
      16A      0.105830    17A      0.105830    18A      0.123414  
      19A      0.123414    20A      0.131434    21A      0.167284  
      22A      0.183738    23A      0.183738    24A      0.194187  
      25A      0.215846    26A      0.215846    27A      0.274336  
      28A      0.275058    29A      0.275058    30A      0.280718  
      31A      0.284163    32A      0.284601    33A      0.284601  
      34A      0.311484    35A      0.321932    36A      0.321932  
      37A      0.354038    38A      0.354038    39A      0.372436  
      40A      0.405758    41A      0.405758    42A      0.417125  
      43A      0.457433    44A      0.457433    45A      0.462919  
      46A      0.476033    47A      0.484153    48A      0.484153  
      49A      0.544282    50A      0.610504    51A      0.610504  
      52A      0.624092    53A      0.624092    54A      0.629982  
      55A      0.629982    56A      0.639714    57A      0.656190  
      58A      0.656190    59A      0.668905    60A      0.668905  
      61A      0.673683    62A      0.706464    63A      0.723462  
      64A      0.731595    65A      0.782819    66A      0.782819  
      67A      0.811585    68A      0.815569    69A      0.815569  
      70A      0.823765    71A      0.847366    72A      0.859358  
      73A      0.859359    74A      0.906321    75A      0.917107  
      76A      0.917108    77A      0.939081    78A      0.954809  
      79A      0.954809    80A      0.974124    81A      0.974125  
      82A      0.995729    83A      1.031415    84A      1.031415  
      85A      1.057775    86A      1.107361    87A      1.117374  
      88A      1.117375    89A      1.133903    90A      1.133903  
      91A      1.189495    92A      1.244122    93A      1.244123  
      94A      1.265472    95A      1.319449    96A      1.319450  
      97A      1.334126    98A      1.366095    99A      1.366096  
     100A      1.420828   101A      1.445832   102A      1.445832  
     103A      1.485253   104A      1.529062   105A      1.532834  
     106A      1.559204   107A      1.559205   108A      1.626648  
     109A      1.626649   110A      1.666911   111A      1.704255  
     112A      1.704256   113A      1.726751   114A      1.747780  
     115A      1.776080   116A      1.788861   117A      1.788861  
     118A      1.839068   119A      1.839068   120A      1.848124  
     121A      1.848124   122A      1.858392   123A      1.868016  
     124A      1.868017   125A      1.894048   126A      1.894048  
     127A      1.921480   128A      1.943843   129A      1.993448  
     130A      1.993449   131A      1.995601   132A      1.995601  
     133A      2.020838   134A      2.048935   135A      2.059856  
     136A      2.087266   137A      2.087266   138A      2.089859  
     139A      2.091835   140A      2.098490   141A      2.098490  
     142A      2.140377   143A      2.151393   144A      2.151394  
     145A      2.193499   146A      2.224365   147A      2.224365  
     148A      2.243874   149A      2.243875   150A      2.283832  
     151A      2.313520   152A      2.325224   153A      2.325225  
     154A      2.352406   155A      2.385856   156A      2.385856  
     157A      2.453479   158A      2.466114   159A      2.466115  
     160A      2.495297   161A      2.495298   162A      2.590428  
     163A      2.594683   164A      2.664194   165A      2.664198  
     166A      2.684346   167A      2.686449   168A      2.686450  
     169A      2.812977   170A      2.857275   171A      2.857275  
     172A      2.968876   173A      3.109330   174A      3.109331  
     175A      3.190913   176A      3.213849   177A      3.213851  
     178A      3.237620   179A      3.237620   180A      3.248037  
     181A      3.304815   182A      3.315379   183A      3.319922  
     184A      3.319923   185A      3.356818   186A      3.356818  
     187A      3.403101   188A      3.424194   189A      3.496752  
     190A      3.496753   191A      3.640881   192A      3.640882  
     193A      3.707167   194A      3.740327   195A      3.740329  
     196A      3.829692   197A      3.836424   198A      3.906575  
     199A      3.906577   200A      3.944474   201A      3.976428  
     202A      3.976428   203A      4.073424   204A      4.073424  
     205A      4.110420   206A      4.221140   207A      4.221142  
     208A      4.362487   209A      4.362760   210A      4.402952  
     211A      4.402953   212A      4.404265   213A      4.434837  
     214A      4.434837   215A      4.458452   216A      4.458455  
     217A      4.546356   218A      4.597809   219A      4.597810  
     220A      4.713506   221A      4.717116   222A      4.722849  
     223A      4.722849   224A      4.731548   225A      4.731548  
     226A      4.748919   227A      4.750857   228A      4.783975  
     229A      4.820624   230A      4.820625   231A      4.824598  
     232A      4.954475   233A      4.954476   234A      5.031476  
     235A      5.096368   236A      5.096368   237A      5.145665  
     238A      5.145666   239A      5.202402   240A      5.467557  
     241A      5.467559   242A      5.693425   243A      5.693427  
     244A      5.751593   245A      5.838476   246A      5.934800  
     247A      5.934803   248A      6.015294   249A      6.021945  
     250A      6.021947   251A      6.373715   252A      6.583243  
     253A      6.583246   254A      6.630513   255A      6.730157  
     256A      6.742418   257A      6.742419   258A      6.744382  
     259A      7.112347   260A      7.130136   261A      7.130137  
     262A      7.243392   263A      7.243393   264A      7.366697  
     265A      7.366701   266A      7.458758   267A      7.672415  
     268A      7.785274   269A      7.940717   270A      7.940719  
     271A      8.186720   272A      8.242822   273A      8.242830  
     274A      8.315883   275A      8.366607   276A      8.366609  
     277A      8.448556   278A      8.448562   279A      8.508822  
     280A      8.512582   281A      8.512585   282A      8.676971  
     283A      8.724627   284A      8.724628   285A      8.802095  
     286A      8.802097   287A      8.859454   288A      8.859454  
     289A      8.910956   290A      9.157875   291A      9.230219  
     292A      9.230220   293A      9.248382   294A      9.302688  
     295A      9.302691   296A      9.457254   297A      9.457255  
     298A      9.521345   299A      9.604197   300A      9.616931  
     301A      9.666390   302A      9.666390   303A      9.768542  
     304A      9.772286   305A      9.772289   306A      9.971510  
     307A     10.102794   308A     10.108792   309A     10.108797  
     310A     10.201276   311A     10.201282   312A     10.468347  
     313A     10.694072   314A     10.694079   315A     10.721611  
     316A     10.814010   317A     10.814012   318A     10.967260  
     319A     10.987778   320A     10.987779   321A     11.498326  
     322A     11.498336   323A     11.558910   324A     11.783654  
     325A     12.127142   326A     12.190688   327A     12.190693  
     328A     12.563775   329A     12.563789   330A     12.806933  
     331A     13.186019   332A     13.186028   333A     13.399339  
     334A     14.014054   335A     14.437525   336A     14.505995  
     337A     14.506005   338A     14.756253   339A     14.756259  
     340A     16.087724   341A     16.087736   342A     16.425318  
     343A     18.723544   344A     20.477729   345A     21.875348  
     346A     21.875386   347A     26.641929   348A     97.315877  

    Final Occupation by Irrep:
              A 
    DOCC [     9 ]
    NA   [     9 ]
    NB   [     9 ]

  @DF-RHF Final Energy:  -460.10802835222677

   => Energetics <=

    Nuclear Repulsion Energy =              6.6967004737335785
    One-Electron Energy =                -649.1663321321700550
    Two-Electron Energy =                 182.3616033062097017
    Total Energy =                       -460.1080283522267678

Computation Completed


Properties will be evaluated at   0.000000,   0.000000,   0.000000 [a0]

Properties computed using the SCF density matrix


 Multipole Moments:

 ------------------------------------------------------------------------------------
     Multipole            Electronic (a.u.)      Nuclear  (a.u.)        Total (a.u.)
 ------------------------------------------------------------------------------------

 L = 1.  Multiply by 2.5417464519 to convert [e a0] to [Debye]
 Dipole X            :          0.0000065           -0.0000065            0.0000000
 Dipole Y            :        -31.1367850           30.6378733           -0.4989117
 Dipole Z            :          0.0000000            0.0000000            0.0000000
 Magnitude           :                                                    0.4989117

 ------------------------------------------------------------------------------------

*** tstop() called on cmpsrv002 at Thu Sep 19 13:58:41 2024
Module time:
	user time   =      28.21 seconds =       0.47 minutes
	system time =       3.43 seconds =       0.06 minutes
	total time  =         38 seconds =       0.63 minutes
Total time:
	user time   =      56.44 seconds =       0.94 minutes
	system time =       7.09 seconds =       0.12 minutes
	total time  =         77 seconds =       1.28 minutes
   => Libint2 <=

    Primary   basis highest AM E, G, H:  6, 6, 3
    Auxiliary basis highest AM E, G, H:  7, 7, 4
    Onebody   basis highest AM E, G, H:  -, -, -
    Solid Harmonics ordering:            Gaussian

*** tstart() called on cmpsrv002
*** at Thu Sep 19 13:58:41 2024

   => Loading Basis Set <=

    Name: THIS_BASIS
    Role: ORBITAL
    Keyword: BASIS
    atoms 1, 4-6 entry H          line    40 file /home/vance/anaconda3/envs/p4env/share/psi4/basis/aug-cc-pvqz.gbs 
    atoms 2      entry CL         line  1222 file /home/vance/anaconda3/envs/p4env/share/psi4/basis/aug-cc-pvqz.gbs 
    atoms 3      entry N          line   363 file /home/vance/anaconda3/envs/p4env/share/psi4/basis/aug-cc-pvqz.gbs 


         ---------------------------------------------------------
                       SAPT(DFT): delta HF Monomer B               
         ---------------------------------------------------------
                                   SCF
               by Justin Turney, Rob Parrish, Andy Simmonett
                          and Daniel G. A. Smith
                              RHF Reference
                        4 Threads,   7629 MiB Core
         ---------------------------------------------------------

  ==> Geometry <==

    Molecular point group: c1
    Full point group: Cs

    Geometry (in Angstrom), charge = 0, multiplicity = 1:

       Center              X                  Y                   Z               Mass       
    ------------   -----------------  -----------------  -----------------  -----------------
      Gh(H)          -0.000000190144    -0.368004758866     0.000000000000     1.007825032230
      Gh(CL)         -0.000000190144     0.975345241134     0.000000000000    34.968852682000
         N           -0.000000190144    -1.917614758866     0.000000000000    14.003074004430
         H           -0.473180190144    -2.276624758866     0.819580000000     1.007825032230
         H           -0.473180190144    -2.276624758866    -0.819580000000     1.007825032230
         H            0.946369809856    -2.276624758866     0.000000000000     1.007825032230

  Running in c1 symmetry.

  Rotational constants: A =      6.22544  B =      0.16540  C =      0.16540 [cm^-1]
  Rotational constants: A = 186633.95025  B =   4958.59929  C =   4958.59890 [MHz]
  Nuclear repulsion =   11.947542838505765

  Charge       = 0
  Multiplicity = 1
  Electrons    = 10
  Nalpha       = 5
  Nbeta        = 5

  ==> Algorithm <==

  SCF Algorithm Type is DF.
  DIIS enabled.
  MOM disabled.
  Fractional occupation disabled.
  Guess Type is SAD.
  Energy threshold   = 1.00e-08
  Density threshold  = 1.00e-08
  Integral threshold = 1.00e-12

  ==> Primary Basis <==

  Basis Set: THIS_BASIS
    Blend: AUG-CC-PVQZ
    Number of shells: 98
    Number of basis functions: 348
    Number of Cartesian functions: 434
    Spherical Harmonics?: true
    Max angular momentum: 4

   => Loading Basis Set <=

    Name: (THIS_BASIS AUX)
    Role: JKFIT
    Keyword: DF_BASIS_SCF
    atoms 1, 4-6 entry H          line    70 file /home/vance/anaconda3/envs/p4env/share/psi4/basis/aug-cc-pvqz-jkfit.gbs 
    atoms 2      entry CL         line   904 file /home/vance/anaconda3/envs/p4env/share/psi4/basis/aug-cc-pvqz-jkfit.gbs 
    atoms 3      entry N          line   248 file /home/vance/anaconda3/envs/p4env/share/psi4/basis/aug-cc-pvqz-jkfit.gbs 

  ==> Integral Setup <==

  ==> DiskDFJK: Density-Fitted J/K Matrices <==

    J tasked:                  Yes
    K tasked:                  Yes
    wK tasked:                  No
    OpenMP threads:              4
    Integrals threads:           4
    Memory [MiB]:             5722
    Algorithm:                Core
    Integral Cache:           SAVE
    Schwarz Cutoff:          1E-12
    Fitting Condition:       1E-10

   => Auxiliary Basis Set <=

  Basis Set: (THIS_BASIS AUX)
    Blend: AUG-CC-PVQZ-JKFIT
    Number of shells: 152
    Number of basis functions: 630
    Number of Cartesian functions: 849
    Spherical Harmonics?: true
    Max angular momentum: 5

  Minimum eigenvalue in the overlap matrix is 8.3930725619E-06.
  Reciprocal condition number of the overlap matrix is 6.8840594920E-07.
    Using symmetric orthogonalization.

  ==> Pre-Iterations <==

  SCF Guess: Superposition of Atomic Densities via on-the-fly atomic UHF (no occupation information).

   -------------------------
    Irrep   Nso     Nmo    
   -------------------------
     A        348     348 
   -------------------------
    Total     348     348
   -------------------------

  ==> Iterations <==

                           Total Energy        Delta E     RMS |[F,P]|

   @DF-RHF iter SAD:   -55.64205536787729   -5.56421e+01   0.00000e+00 
   @DF-RHF iter   1:   -56.12628737229798   -4.84232e-01   1.34287e-03 DIIS/ADIIS
   @DF-RHF iter   2:   -56.19509000783663   -6.88026e-02   7.78586e-04 DIIS/ADIIS
   @DF-RHF iter   3:   -56.22333412410404   -2.82441e-02   7.07541e-05 DIIS
   @DF-RHF iter   4:   -56.22397092727707   -6.36803e-04   1.32176e-05 DIIS
   @DF-RHF iter   5:   -56.22399213162074   -2.12043e-05   2.45622e-06 DIIS
   @DF-RHF iter   6:   -56.22399337365491   -1.24203e-06   6.41980e-07 DIIS
   @DF-RHF iter   7:   -56.22399345869103   -8.50361e-08   1.41688e-07 DIIS
   @DF-RHF iter   8:   -56.22399346302973   -4.33869e-09   2.10294e-08 DIIS
   @DF-RHF iter   9:   -56.22399346312521   -9.54827e-11   5.62857e-09 DIIS
  Energy and wave function converged.


  ==> Post-Iterations <==

    Orbital Energies [Eh]
    ---------------------

    Doubly Occupied:                                                      

       1A    -15.539199     2A     -1.139717     3A     -0.630907  
       4A     -0.630904     5A     -0.425447  

    Virtual:                                                              

       6A      0.025031     7A      0.042515     8A      0.043332  
       9A      0.043332    10A      0.096416    11A      0.096416  
      12A      0.100697    13A      0.117498    14A      0.138020  
      15A      0.138020    16A      0.138072    17A      0.152542  
      18A      0.181534    19A      0.181534    20A      0.215264  
      21A      0.215264    22A      0.274296    23A      0.283131  
      24A      0.290237    25A      0.290237    26A      0.291047  
      27A      0.308148    28A      0.308148    29A      0.323632  
      30A      0.325805    31A      0.325805    32A      0.330962  
      33A      0.353478    34A      0.369922    35A      0.369923  
      36A      0.396378    37A      0.396379    38A      0.409861  
      39A      0.454101    40A      0.454101    41A      0.463376  
      42A      0.476759    43A      0.476759    44A      0.553306  
      45A      0.553306    46A      0.556042    47A      0.566187  
      48A      0.566187    49A      0.624256    50A      0.632883  
      51A      0.698951    52A      0.717960    53A      0.718226  
      54A      0.718227    55A      0.737433    56A      0.737433  
      57A      0.737866    58A      0.755482    59A      0.782098  
      60A      0.792105    61A      0.792106    62A      0.827617  
      63A      0.827618    64A      0.853478    65A      0.855631  
      66A      0.855632    67A      0.888020    68A      0.888020  
      69A      0.888772    70A      0.918808    71A      0.940823  
      72A      0.940823    73A      0.964853    74A      0.964854  
      75A      0.981850    76A      1.024759    77A      1.024759  
      78A      1.033222    79A      1.039445    80A      1.039445  
      81A      1.081609    82A      1.097927    83A      1.097928  
      84A      1.136295    85A      1.136295    86A      1.157514  
      87A      1.194791    88A      1.194792    89A      1.211522  
      90A      1.373885    91A      1.375940    92A      1.377412  
      93A      1.377412    94A      1.399363    95A      1.444001  
      96A      1.444001    97A      1.451450    98A      1.451451  
      99A      1.465549   100A      1.506821   101A      1.553885  
     102A      1.565330   103A      1.565331   104A      1.589433  
     105A      1.633285   106A      1.633286   107A      1.723382  
     108A      1.723382   109A      1.756327   110A      1.756327  
     111A      1.767361   112A      1.767932   113A      1.789330  
     114A      1.789331   115A      1.813177   116A      1.829828  
     117A      1.873200   118A      1.873202   119A      1.915629  
     120A      1.915631   121A      1.951321   122A      1.958349  
     123A      1.958349   124A      1.977725   125A      2.010348  
     126A      2.010349   127A      2.073157   128A      2.073157  
     129A      2.074830   130A      2.074968   131A      2.135645  
     132A      2.147612   133A      2.147864   134A      2.147864  
     135A      2.221699   136A      2.221700   137A      2.253849  
     138A      2.286291   139A      2.286291   140A      2.314357  
     141A      2.343737   142A      2.343738   143A      2.357390  
     144A      2.372587   145A      2.399265   146A      2.399265  
     147A      2.426376   148A      2.481730   149A      2.481730  
     150A      2.503690   151A      2.521817   152A      2.552774  
     153A      2.552774   154A      2.606670   155A      2.606671  
     156A      2.647337   157A      2.647337   158A      2.649101  
     159A      2.661214   160A      2.775450   161A      2.810495  
     162A      2.810497   163A      2.903513   164A      2.903515  
     165A      2.934753   166A      2.980813   167A      2.980815  
     168A      3.000798   169A      3.022499   170A      3.022500  
     171A      3.052516   172A      3.104417   173A      3.113488  
     174A      3.113491   175A      3.170709   176A      3.187823  
     177A      3.187824   178A      3.211922   179A      3.313356  
     180A      3.313357   181A      3.351753   182A      3.351754  
     183A      3.378146   184A      3.404990   185A      3.424840  
     186A      3.424841   187A      3.602960   188A      3.602960  
     189A      3.612771   190A      3.612773   191A      3.623718  
     192A      3.713469   193A      3.713470   194A      3.726874  
     195A      3.792286   196A      3.884232   197A      3.911212  
     198A      3.911212   199A      4.063657   200A      4.063658  
     201A      4.121735   202A      4.141425   203A      4.141430  
     204A      4.183639   205A      4.239004   206A      4.275607  
     207A      4.275607   208A      4.383202   209A      4.528554  
     210A      4.528556   211A      4.572190   212A      4.594984  
     213A      4.594986   214A      4.748953   215A      4.811626  
     216A      4.811630   217A      4.890521   218A      4.890523  
     219A      5.036746   220A      5.036747   221A      5.053021  
     222A      5.264765   223A      5.299358   224A      5.299359  
     225A      5.375357   226A      5.438276   227A      5.438276  
     228A      5.451050   229A      5.480621   230A      5.504372  
     231A      5.522306   232A      5.522307   233A      5.617207  
     234A      5.617207   235A      5.871751   236A      6.094240  
     237A      6.094241   238A      6.204210   239A      6.277392  
     240A      6.283475   241A      6.339564   242A      6.339565  
     243A      6.412008   244A      6.412008   245A      6.874333  
     246A      7.004206   247A      7.004210   248A      7.009120  
     249A      7.042781   250A      7.042785   251A      7.102169  
     252A      7.111708   253A      7.392821   254A      7.439353  
     255A      7.458494   256A      7.458498   257A      7.622306  
     258A      7.622308   259A      7.671946   260A      7.701417  
     261A      7.701419   262A      7.706517   263A      7.760878  
     264A      7.760878   265A      7.792785   266A      7.792791  
     267A      7.878185   268A      8.009918   269A      8.009923  
     270A      8.091121   271A      8.091128   272A      8.169906  
     273A      8.169909   274A      8.231980   275A      8.288134  
     276A      8.288134   277A      8.334035   278A      8.479882  
     279A      8.493545   280A      8.493546   281A      8.634690  
     282A      8.746816   283A      8.746823   284A      8.783150  
     285A      8.783151   286A      8.903196   287A      8.977838  
     288A      8.977839   289A      8.992289   290A      8.994037  
     291A      9.028911   292A      9.047292   293A      9.047295  
     294A      9.085561   295A      9.218843   296A      9.321215  
     297A      9.321216   298A      9.369356   299A      9.369356  
     300A      9.451031   301A      9.451032   302A      9.543363  
     303A      9.543367   304A      9.664037   305A      9.760215  
     306A      9.789721   307A      9.789723   308A      9.873445  
     309A      9.942142   310A      9.942148   311A     10.104246  
     312A     10.105614   313A     10.105614   314A     10.258940  
     315A     10.306192   316A     10.306192   317A     10.369955  
     318A     10.369958   319A     10.555297   320A     10.595862  
     321A     10.595864   322A     10.879225   323A     10.889925  
     324A     10.913119   325A     10.913123   326A     11.085261  
     327A     11.085265   328A     11.268518   329A     11.992094  
     330A     12.223115   331A     12.223123   332A     12.459082  
     333A     12.522915   334A     12.522930   335A     12.576152  
     336A     13.073502   337A     13.203932   338A     13.203942  
     339A     13.573784   340A     15.133443   341A     15.133455  
     342A     15.300004   343A     31.134943   344A     31.134943  
     345A     31.429582   346A     37.480219   347A     43.333862  
     348A    160.451991  

    Final Occupation by Irrep:
              A 
    DOCC [     5 ]
    NA   [     5 ]
    NB   [     5 ]

  @DF-RHF Final Energy:   -56.22399346312521

   => Energetics <=

    Nuclear Repulsion Energy =             11.9475428385057647
    One-Electron Energy =                 -99.6107215044765439
    Two-Electron Energy =                  31.4391852028455610
    Total Energy =                        -56.2239934631252112

Computation Completed


Properties will be evaluated at   0.000000,   0.000000,   0.000000 [a0]

Properties computed using the SCF density matrix


 Multipole Moments:

 ------------------------------------------------------------------------------------
     Multipole            Electronic (a.u.)      Nuclear  (a.u.)        Total (a.u.)
 ------------------------------------------------------------------------------------

 L = 1.  Multiply by 2.5417464519 to convert [e a0] to [Debye]
 Dipole X            :         -0.0000127            0.0000153            0.0000026
 Dipole Y            :         37.6665450          -38.2729588           -0.6064138
 Dipole Z            :          0.0000000            0.0000000            0.0000000
 Magnitude           :                                                    0.6064138

 ------------------------------------------------------------------------------------

*** tstop() called on cmpsrv002 at Thu Sep 19 13:59:36 2024
Module time:
	user time   =      34.32 seconds =       0.57 minutes
	system time =       4.18 seconds =       0.07 minutes
	total time  =         55 seconds =       0.92 minutes
Total time:
	user time   =      90.77 seconds =       1.51 minutes
	system time =      11.28 seconds =       0.19 minutes
	total time  =        132 seconds =       2.20 minutes

         ---------------------------------------------------------
                        SAPT(DFT): delta HF Segment                

                   by Daniel G. A. Smith and Rob Parrish           
         ---------------------------------------------------------


  ==> Preparing SAPT Data Cache <== 

  ==> DiskDFJK: Density-Fitted J/K Matrices <==

    J tasked:                  Yes
    K tasked:                  Yes
    wK tasked:                  No
    OpenMP threads:              4
    Integrals threads:           4
    Memory [MiB]:             5722
    Algorithm:                Core
    Integral Cache:           SAVE
    Schwarz Cutoff:          1E-12
    Fitting Condition:       1E-10

   => Auxiliary Basis Set <=

  Basis Set: (THIS_BASIS AUX)
    Blend: AUG-CC-PVQZ-JKFIT
    Number of shells: 152
    Number of basis functions: 630
    Number of Cartesian functions: 849
    Spherical Harmonics?: true
    Max angular momentum: 5


  ==> E10 Electostatics <== 

    Elst10,r                        -48.32075701 [mEh]

  ==> E10 Exchange <== 

    Exch10(S^2)                      72.55514648 [mEh]
    Exch10                           76.49576913 [mEh]

  ==> E20 Induction <== 

   => Uncoupled Induction <= 

    Ind20,u (A<-B)                  -11.36633351 [mEh]
    Ind20,u (A->B)                  -22.43388854 [mEh]
    Ind20,u                         -33.80022205 [mEh]
    Exch-Ind20,u (A<-B)               8.04503833 [mEh]
    Exch-Ind20,u (A->B)              11.09937266 [mEh]
    Exch-Ind20,u                     19.14441099 [mEh]
    Exch-Ind20,u (A<-B) (S^inf)       9.04243566 [mEh]
    Exch-Ind20,u (A->B) (S^inf)      12.72373610 [mEh]
    Exch-Ind20,u (S^inf)             21.76617176 [mEh]

   => Coupled Induction <= 

   ---------------------------------------------------
              SAPT Coupled Induction Solver           
   ---------------------------------------------------
    Maxiter             =          20
    Convergence         =   1.000E-06
   ---------------------------------------------------
     Iter       (A<-B)           (B->A)      Time [s]
   ---------------------------------------------------
    Guess    1.183389e-01     1.604300e-01          8
        1    3.454400e-02     5.149512e-02         19
        2    4.375043e-03     1.427683e-02         30
        3    1.198533e-03     3.829160e-03         40
        4    2.956675e-04     7.326140e-04         50
        5    4.612669e-05     1.265307e-04         59
        6    9.764726e-06     1.873677e-05         69
        7    1.365177e-06     2.954561e-06         77
        8    1.306591e-07*    7.674753e-07*        86
   ---------------------------------------------------

    Ind20,r (A<-B)                  -13.16391178 [mEh]
    Ind20,r (A->B)                  -28.47826256 [mEh]
    Ind20,r                         -41.64217434 [mEh]
    Exch-Ind20,r (A<-B)               9.69286595 [mEh]
    Exch-Ind20,r (A->B)              15.23856392 [mEh]
    Exch-Ind20,r                     24.93142987 [mEh]
    Exch-Ind20,r (A<-B) (S^inf)      10.92649067 [mEh]
    Exch-Ind20,r (A->B) (S^inf)      17.54441247 [mEh]
    Exch-Ind20,r (S^inf)             28.47090314 [mEh]

   Partial SAPT(HF) Results, to compute Delta HF (dHF)
  ---------------------------------------------------------------------------------------------------------
    Electrostatics                  -48.32075701 [mEh]    -30.32173281 [kcal/mol]   -126.86613006 [kJ/mol]
      Elst10,r                      -48.32075701 [mEh]    -30.32173281 [kcal/mol]   -126.86613006 [kJ/mol]

    Exchange                         76.49576913 [mEh]     48.00181983 [kcal/mol]    200.83961418 [kJ/mol]
      Exch10                         76.49576913 [mEh]     48.00181983 [kcal/mol]    200.83961418 [kJ/mol]
      Exch10(S^2)                    72.55514648 [mEh]     45.52904179 [kcal/mol]    190.49351084 [kJ/mol]

    Induction (no dHF)              -16.71074447 [mEh]    -10.48615047 [kcal/mol]    -43.87405356 [kJ/mol]
      Ind20,r                       -41.64217434 [mEh]    -26.13085891 [kcal/mol]   -109.33151366 [kJ/mol]
      Exch-Ind20,r                   24.93142987 [mEh]     15.64470844 [kcal/mol]     65.45746010 [kJ/mol]
      Induction (A<-B) (no dHF)      -3.47104583 [mEh]     -2.17811414 [kcal/mol]     -9.11322957 [kJ/mol]
      Induction (A->B) (no dHF)     -13.23969864 [mEh]     -8.30803633 [kcal/mol]    -34.76082399 [kJ/mol]

    Subtotal SAPT(HF)                11.46426765 [mEh]      7.19393656 [kcal/mol]     30.09943056 [kJ/mol]
    Total HF                         -6.40882961 [mEh]     -4.02160130 [kcal/mol]    -16.82637982 [kJ/mol]
    Delta HF                        -17.87309726 [mEh]    -11.21553785 [kcal/mol]    -46.92581038 [kJ/mol]
  ---------------------------------------------------------------------------------------------------------
   Partial SAPT(HF) Results, alternate SAPT0-like display
  ---------------------------------------------------------------------------------------------------------
    Induction                       -34.58384173 [mEh]    -21.70168832 [kcal/mol]    -90.79986394 [kJ/mol]
      Ind20,r                       -41.64217434 [mEh]    -26.13085891 [kcal/mol]   -109.33151366 [kJ/mol]
      Exch-Ind20,r                   24.93142987 [mEh]     15.64470844 [kcal/mol]     65.45746010 [kJ/mol]
      delta HF,r (2)                -17.87309726 [mEh]    -11.21553785 [kcal/mol]    -46.92581038 [kJ/mol]
      Induction (A<-B)               -7.18352793 [mEh]     -4.50773183 [kcal/mol]    -18.86034998 [kJ/mol]
      Induction (A->B)              -27.40031380 [mEh]    -17.19395649 [kcal/mol]    -71.93951396 [kJ/mol]
  ---------------------------------------------------------------------------------------------------------
   => Libint2 <=

    Primary   basis highest AM E, G, H:  6, 6, 3
    Auxiliary basis highest AM E, G, H:  7, 7, 4
    Onebody   basis highest AM E, G, H:  -, -, -
    Solid Harmonics ordering:            Gaussian

*** tstart() called on cmpsrv002
*** at Thu Sep 19 14:01:41 2024

   => Loading Basis Set <=

    Name: THIS_BASIS
    Role: ORBITAL
    Keyword: BASIS
    atoms 1, 4-6 entry H          line    40 file /home/vance/anaconda3/envs/p4env/share/psi4/basis/aug-cc-pvqz.gbs 
    atoms 2      entry CL         line  1222 file /home/vance/anaconda3/envs/p4env/share/psi4/basis/aug-cc-pvqz.gbs 
    atoms 3      entry N          line   363 file /home/vance/anaconda3/envs/p4env/share/psi4/basis/aug-cc-pvqz.gbs 


         ---------------------------------------------------------
                          SAPT(DFT): DFT Monomer A                 
         ---------------------------------------------------------
                                   SCF
               by Justin Turney, Rob Parrish, Andy Simmonett
                          and Daniel G. A. Smith
                              RKS Reference
                        4 Threads,   7629 MiB Core
         ---------------------------------------------------------

  ==> Geometry <==

    Molecular point group: c1
    Full point group: Cs

    Geometry (in Angstrom), charge = 0, multiplicity = 1:

       Center              X                  Y                   Z               Mass       
    ------------   -----------------  -----------------  -----------------  -----------------
         H           -0.000000190144    -0.368004758866     0.000000000000     1.007825032230
         CL          -0.000000190144     0.975345241134     0.000000000000    34.968852682000
      Gh(N)          -0.000000190144    -1.917614758866     0.000000000000    14.003074004430
      Gh(H)          -0.473180190144    -2.276624758866     0.819580000000     1.007825032230
      Gh(H)          -0.473180190144    -2.276624758866    -0.819580000000     1.007825032230
      Gh(H)           0.946369809856    -2.276624758866     0.000000000000     1.007825032230

  Running in c1 symmetry.

  Rotational constants: A =      6.22544  B =      0.16540  C =      0.16540 [cm^-1]
  Rotational constants: A = 186633.95025  B =   4958.59929  C =   4958.59890 [MHz]
  Nuclear repulsion =    6.696700473733578

  Charge       = 0
  Multiplicity = 1
  Electrons    = 18
  Nalpha       = 9
  Nbeta        = 9

  ==> Algorithm <==

  SCF Algorithm Type is DF.
  DIIS enabled.
  MOM disabled.
  Fractional occupation disabled.
  Guess Type is SAD.
  Energy threshold   = 1.00e-08
  Density threshold  = 1.00e-08
  Integral threshold = 1.00e-12

  ==> Primary Basis <==

  Basis Set: THIS_BASIS
    Blend: AUG-CC-PVQZ
    Number of shells: 98
    Number of basis functions: 348
    Number of Cartesian functions: 434
    Spherical Harmonics?: true
    Max angular momentum: 4

  ==> DFT Potential <==

   => LibXC <=

    Version 6.2.2
    S. Lehtola, C. Steigemann, M. J.T. Oliveira, and M. A.L. Marques.,  SoftwareX 7, 15 (2018) (10.1016/j.softx.2017.11.002)

   => Composite Functional: PBE0 <= 

    PBE0 Hyb-GGA Exchange-Correlation Functional

    C. Adamo and V. Barone.,  J. Chem. Phys. 110, 6158 (1999) (10.1063/1.478522)
    M. Ernzerhof and G. E. Scuseria.,  J. Chem. Phys. 110, 5029 (1999) (10.1063/1.478401)

    Deriv               =              1
    GGA                 =           TRUE
    Meta                =          FALSE

    Exchange Hybrid     =           TRUE
    MP2 Hybrid          =          FALSE

   => Exchange Functionals <=

    0.7500   Perdew, Burke & Ernzerhof

   => Exact (HF) Exchange <=

    0.2500               HF 

   => Correlation Functionals <=

    1.0000   Perdew, Burke & Ernzerhof

   => LibXC Density Thresholds  <==

    XC_HYB_GGA_XC_PBEH:  1.00E-15 

   => Asymptotic Correction <=

    X Functional        =    XC_GGA_X_LB
    C Functional        =   XC_LDA_C_VWN
    Bulk Shift          =       0.116251
    GRAC Alpha          =       0.500000
    GRAC Beta           =      40.000000

   => Molecular Quadrature <=

    Radial Scheme          =       TREUTLER
    Pruning Scheme         =           NONE
    Nuclear Scheme         =       TREUTLER

    Blocking Scheme        =         OCTREE
    BS radius alpha        =              1
    Pruning alpha          =              1
    Radial Points          =             75
    Spherical Points       =            302
    Total Points           =         131724
    Total Blocks           =           1043
    Max Points             =            256
    Max Functions          =            348
    Weights Tolerance      =       1.00E-15

   => Loading Basis Set <=

    Name: (THIS_BASIS AUX)
    Role: JKFIT
    Keyword: DF_BASIS_SCF
    atoms 1, 4-6 entry H          line    70 file /home/vance/anaconda3/envs/p4env/share/psi4/basis/aug-cc-pvqz-jkfit.gbs 
    atoms 2      entry CL         line   904 file /home/vance/anaconda3/envs/p4env/share/psi4/basis/aug-cc-pvqz-jkfit.gbs 
    atoms 3      entry N          line   248 file /home/vance/anaconda3/envs/p4env/share/psi4/basis/aug-cc-pvqz-jkfit.gbs 

  ==> Integral Setup <==

  ==> DiskDFJK: Density-Fitted J/K Matrices <==

    J tasked:                  Yes
    K tasked:                  Yes
    wK tasked:                  No
    OpenMP threads:              4
    Integrals threads:           4
    Memory [MiB]:             4532
    Algorithm:                Core
    Integral Cache:           SAVE
    Schwarz Cutoff:          1E-12
    Fitting Condition:       1E-10

   => Auxiliary Basis Set <=

  Basis Set: (THIS_BASIS AUX)
    Blend: AUG-CC-PVQZ-JKFIT
    Number of shells: 152
    Number of basis functions: 630
    Number of Cartesian functions: 849
    Spherical Harmonics?: true
    Max angular momentum: 5

  Cached 100.0% of DFT collocation blocks in 1.162 [GiB].

  Minimum eigenvalue in the overlap matrix is 8.3930725619E-06.
  Reciprocal condition number of the overlap matrix is 6.8840594920E-07.
    Using symmetric orthogonalization.

  ==> Pre-Iterations <==

  SCF Guess: Superposition of Atomic Densities via on-the-fly atomic UHF (no occupation information).

   -------------------------
    Irrep   Nso     Nmo    
   -------------------------
     A        348     348 
   -------------------------
    Total     348     348
   -------------------------

  ==> Iterations <==

                           Total Energy        Delta E     RMS |[F,P]|

   @DF-RKS iter SAD:  -460.52671637963766   -4.60527e+02   0.00000e+00 
   @DF-RKS iter   1:  -460.65070968735836   -1.23993e-01   7.18775e-04 DIIS/ADIIS
   @DF-RKS iter   2:  -460.65476703822407   -4.05735e-03   6.34113e-04 DIIS/ADIIS
   @DF-RKS iter   3:  -460.67484504026538   -2.00780e-02   5.20090e-05 DIIS
   @DF-RKS iter   4:  -460.67502611528084   -1.81075e-04   8.04628e-06 DIIS
   @DF-RKS iter   5:  -460.67503134930445   -5.23402e-06   1.21798e-06 DIIS
   @DF-RKS iter   6:  -460.67503102507305    3.24231e-07   4.36099e-08 DIIS
   @DF-RKS iter   7:  -460.67503103283696   -7.76538e-09   3.09612e-09 DIIS
  Energy and wave function converged.


  ==> Post-Iterations <==

   Electrons on quadrature grid:
      Ntotal   =   17.9999982784 ; deviation = -1.722e-06 

    Orbital Energies [Eh]
    ---------------------

    Doubly Occupied:                                                      

       1A   -101.863022     2A     -9.665170     3A     -7.400759  
       4A     -7.392301     5A     -7.392301     6A     -0.976109  
       7A     -0.595511     8A     -0.463147     9A     -0.463147  

    Virtual:                                                              

      10A     -0.133235    11A     -0.063561    12A     -0.046656  
      13A     -0.041856    14A     -0.041839    15A     -0.006522  
      16A     -0.005370    17A     -0.005355    18A      0.020098  
      19A      0.020143    20A      0.035447    21A      0.045432  
      22A      0.056189    23A      0.056206    24A      0.075694  
      25A      0.097758    26A      0.097778    27A      0.119435  
      28A      0.119441    29A      0.143494    30A      0.161431  
      31A      0.161452    32A      0.182784    33A      0.185828  
      34A      0.185851    35A      0.196910    36A      0.197609  
      37A      0.215040    38A      0.215121    39A      0.246041  
      40A      0.264844    41A      0.298488    42A      0.298505  
      43A      0.308057    44A      0.314776    45A      0.314818  
      46A      0.327532    47A      0.327549    48A      0.361382  
      49A      0.393478    50A      0.393481    51A      0.401249  
      52A      0.448084    53A      0.448126    54A      0.466684  
      55A      0.466692    56A      0.473485    57A      0.502673  
      58A      0.502700    59A      0.507193    60A      0.518489  
      61A      0.518528    62A      0.563189    63A      0.576809  
      64A      0.601925    65A      0.617135    66A      0.622942  
      67A      0.622946    68A      0.636987    69A      0.637027  
      70A      0.651900    71A      0.669601    72A      0.707765  
      73A      0.742420    74A      0.742441    75A      0.776448  
      76A      0.778350    77A      0.778358    78A      0.789472  
      79A      0.789493    80A      0.817569    81A      0.817599  
      82A      0.833694    83A      0.842859    84A      0.842877  
      85A      0.891278    86A      0.928454    87A      0.928471  
      88A      0.936229    89A      0.964980    90A      0.965000  
      91A      0.984421    92A      1.062751    93A      1.069031  
      94A      1.069040    95A      1.116404    96A      1.116427  
      97A      1.140922    98A      1.184320    99A      1.184322  
     100A      1.237443   101A      1.267578   102A      1.267601  
     103A      1.307935   104A      1.338316   105A      1.338339  
     106A      1.365264   107A      1.397561   108A      1.419905  
     109A      1.419909   110A      1.445127   111A      1.484600  
     112A      1.484609   113A      1.515611   114A      1.526495  
     115A      1.526511   116A      1.529376   117A      1.535245  
     118A      1.558605   119A      1.558606   120A      1.630303  
     121A      1.630310   122A      1.662960   123A      1.683158  
     124A      1.683162   125A      1.688676   126A      1.702735  
     127A      1.734162   128A      1.734184   129A      1.746199  
     130A      1.746210   131A      1.756746   132A      1.772818  
     133A      1.780819   134A      1.841990   135A      1.842012  
     136A      1.859508   137A      1.859511   138A      1.875873  
     139A      1.928472   140A      1.928496   141A      1.939716  
     142A      1.939725   143A      1.954304   144A      1.961977  
     145A      1.980634   146A      1.997978   147A      1.997987  
     148A      2.040247   149A      2.050373   150A      2.050375  
     151A      2.101789   152A      2.137508   153A      2.137513  
     154A      2.160715   155A      2.160719   156A      2.178631  
     157A      2.202388   158A      2.202403   159A      2.244653  
     160A      2.296255   161A      2.296265   162A      2.341510  
     163A      2.415108   164A      2.436559   165A      2.436561  
     166A      2.465125   167A      2.509534   168A      2.509546  
     169A      2.571072   170A      2.581932   171A      2.581952  
     172A      2.748713   173A      2.871353   174A      2.871361  
     175A      2.990371   176A      2.990390   177A      3.025569  
     178A      3.034800   179A      3.034801   180A      3.057988  
     181A      3.070745   182A      3.106585   183A      3.106597  
     184A      3.175171   185A      3.177934   186A      3.177946  
     187A      3.193395   188A      3.245478   189A      3.347992  
     190A      3.348000   191A      3.394124   192A      3.408928  
     193A      3.408932   194A      3.496937   195A      3.496940  
     196A      3.531352   197A      3.693856   198A      3.720393  
     199A      3.720401   200A      3.731079   201A      3.805906  
     202A      3.805908   203A      3.841731   204A      3.841740  
     205A      3.908805   206A      3.908806   207A      3.941828  
     208A      4.076855   209A      4.076864   210A      4.085324  
     211A      4.165728   212A      4.185003   213A      4.185005  
     214A      4.193019   215A      4.226220   216A      4.227590  
     217A      4.230708   218A      4.230720   219A      4.248886  
     220A      4.248887   221A      4.256922   222A      4.256923  
     223A      4.280975   224A      4.305516   225A      4.341307  
     226A      4.367491   227A      4.406866   228A      4.406872  
     229A      4.473640   230A      4.473642   231A      4.539239  
     232A      4.606374   233A      4.606377   234A      4.677747  
     235A      4.712395   236A      4.712398   237A      4.801997  
     238A      4.802005   239A      5.004352   240A      5.209425  
     241A      5.209426   242A      5.435049   243A      5.435055  
     244A      5.503099   245A      5.673962   246A      5.715062  
     247A      5.733412   248A      5.733418   249A      5.821663  
     250A      5.821668   251A      6.103052   252A      6.192539  
     253A      6.192541   254A      6.331346   255A      6.357910  
     256A      6.428077   257A      6.435897   258A      6.435898  
     259A      6.802025   260A      6.802026   261A      6.974190  
     262A      6.992007   263A      7.050981   264A      7.050982  
     265A      7.179116   266A      7.179117   267A      7.513615  
     268A      7.605535   269A      7.605537   270A      7.644880  
     271A      8.039874   272A      8.050943   273A      8.068757  
     274A      8.068768   275A      8.186349   276A      8.186355  
     277A      8.223053   278A      8.223059   279A      8.282236  
     280A      8.282253   281A      8.325400   282A      8.362992  
     283A      8.427084   284A      8.427092   285A      8.513793  
     286A      8.513805   287A      8.638049   288A      8.638057  
     289A      8.764309   290A      8.963544   291A      8.986671  
     292A      8.986672   293A      9.067278   294A      9.125735  
     295A      9.125739   296A      9.211307   297A      9.211316  
     298A      9.347129   299A      9.368846   300A      9.392561  
     301A      9.392575   302A      9.473629   303A      9.549134  
     304A      9.616337   305A      9.616341   306A      9.687779  
     307A      9.786934   308A      9.961396   309A      9.961400  
     310A     10.043038   311A     10.043047   312A     10.328378  
     313A     10.475782   314A     10.536167   315A     10.536180  
     316A     10.651378   317A     10.651379   318A     10.810661  
     319A     10.825106   320A     10.825108   321A     11.181223  
     322A     11.321135   323A     11.321141   324A     11.544765  
     325A     11.952723   326A     12.015354   327A     12.015355  
     328A     12.402677   329A     12.402691   330A     12.594212  
     331A     13.026099   332A     13.026108   333A     13.242914  
     334A     13.859884   335A     14.256400   336A     14.352882  
     337A     14.352892   338A     14.578867   339A     14.578875  
     340A     15.913111   341A     15.913118   342A     16.264966  
     343A     18.542390   344A     20.294419   345A     21.701356  
     346A     21.701394   347A     25.808305   348A     97.131574  

    Final Occupation by Irrep:
              A 
    DOCC [     9 ]
    NA   [     9 ]
    NB   [     9 ]

  @DF-RKS Final Energy:  -460.67503103283696

   => Energetics <=

    Nuclear Repulsion Energy =              6.6967004737335785
    One-Electron Energy =                -649.2514212719717079
    Two-Electron Energy =                 203.3314696674722768
    DFT Exchange-Correlation Energy =     -21.4517799020711131
    Empirical Dispersion Energy =           0.0000000000000000
    VV10 Nonlocal Energy =                  0.0000000000000000
    Total Energy =                       -460.6750310328369551

Computation Completed


Properties will be evaluated at   0.000000,   0.000000,   0.000000 [a0]

Properties computed using the SCF density matrix


 Multipole Moments:

 ------------------------------------------------------------------------------------
     Multipole            Electronic (a.u.)      Nuclear  (a.u.)        Total (a.u.)
 ------------------------------------------------------------------------------------

 L = 1.  Multiply by 2.5417464519 to convert [e a0] to [Debye]
 Dipole X            :          0.0000104           -0.0000065            0.0000039
 Dipole Y            :        -31.1078201           30.6378733           -0.4699468
 Dipole Z            :          0.0000000            0.0000000            0.0000000
 Magnitude           :                                                    0.4699468

 ------------------------------------------------------------------------------------

*** tstop() called on cmpsrv002 at Thu Sep 19 14:03:50 2024
Module time:
	user time   =      98.40 seconds =       1.64 minutes
	system time =       5.26 seconds =       0.09 minutes
	total time  =        142 seconds =       2.37 minutes
Total time:
	user time   =     303.20 seconds =       5.05 minutes
	system time =      15.91 seconds =       0.27 minutes
	total time  =        391 seconds =       6.52 minutes
   => Libint2 <=

    Primary   basis highest AM E, G, H:  6, 6, 3
    Auxiliary basis highest AM E, G, H:  7, 7, 4
    Onebody   basis highest AM E, G, H:  -, -, -
    Solid Harmonics ordering:            Gaussian

*** tstart() called on cmpsrv002
*** at Thu Sep 19 14:03:50 2024

   => Loading Basis Set <=

    Name: THIS_BASIS
    Role: ORBITAL
    Keyword: BASIS
    atoms 1, 4-6 entry H          line    40 file /home/vance/anaconda3/envs/p4env/share/psi4/basis/aug-cc-pvqz.gbs 
    atoms 2      entry CL         line  1222 file /home/vance/anaconda3/envs/p4env/share/psi4/basis/aug-cc-pvqz.gbs 
    atoms 3      entry N          line   363 file /home/vance/anaconda3/envs/p4env/share/psi4/basis/aug-cc-pvqz.gbs 


         ---------------------------------------------------------
                          SAPT(DFT): DFT Monomer B                 
         ---------------------------------------------------------
                                   SCF
               by Justin Turney, Rob Parrish, Andy Simmonett
                          and Daniel G. A. Smith
                              RKS Reference
                        4 Threads,   7629 MiB Core
         ---------------------------------------------------------

  ==> Geometry <==

    Molecular point group: c1
    Full point group: Cs

    Geometry (in Angstrom), charge = 0, multiplicity = 1:

       Center              X                  Y                   Z               Mass       
    ------------   -----------------  -----------------  -----------------  -----------------
      Gh(H)          -0.000000190144    -0.368004758866     0.000000000000     1.007825032230
      Gh(CL)         -0.000000190144     0.975345241134     0.000000000000    34.968852682000
         N           -0.000000190144    -1.917614758866     0.000000000000    14.003074004430
         H           -0.473180190144    -2.276624758866     0.819580000000     1.007825032230
         H           -0.473180190144    -2.276624758866    -0.819580000000     1.007825032230
         H            0.946369809856    -2.276624758866     0.000000000000     1.007825032230

  Running in c1 symmetry.

  Rotational constants: A =      6.22544  B =      0.16540  C =      0.16540 [cm^-1]
  Rotational constants: A = 186633.95025  B =   4958.59929  C =   4958.59890 [MHz]
  Nuclear repulsion =   11.947542838505765

  Charge       = 0
  Multiplicity = 1
  Electrons    = 10
  Nalpha       = 5
  Nbeta        = 5

  ==> Algorithm <==

  SCF Algorithm Type is DF.
  DIIS enabled.
  MOM disabled.
  Fractional occupation disabled.
  Guess Type is SAD.
  Energy threshold   = 1.00e-08
  Density threshold  = 1.00e-08
  Integral threshold = 1.00e-12

  ==> Primary Basis <==

  Basis Set: THIS_BASIS
    Blend: AUG-CC-PVQZ
    Number of shells: 98
    Number of basis functions: 348
    Number of Cartesian functions: 434
    Spherical Harmonics?: true
    Max angular momentum: 4

  ==> DFT Potential <==

   => LibXC <=

    Version 6.2.2
    S. Lehtola, C. Steigemann, M. J.T. Oliveira, and M. A.L. Marques.,  SoftwareX 7, 15 (2018) (10.1016/j.softx.2017.11.002)

   => Composite Functional: PBE0 <= 

    PBE0 Hyb-GGA Exchange-Correlation Functional

    C. Adamo and V. Barone.,  J. Chem. Phys. 110, 6158 (1999) (10.1063/1.478522)
    M. Ernzerhof and G. E. Scuseria.,  J. Chem. Phys. 110, 5029 (1999) (10.1063/1.478401)

    Deriv               =              1
    GGA                 =           TRUE
    Meta                =          FALSE

    Exchange Hybrid     =           TRUE
    MP2 Hybrid          =          FALSE

   => Exchange Functionals <=

    0.7500   Perdew, Burke & Ernzerhof

   => Exact (HF) Exchange <=

    0.2500               HF 

   => Correlation Functionals <=

    1.0000   Perdew, Burke & Ernzerhof

   => LibXC Density Thresholds  <==

    XC_HYB_GGA_XC_PBEH:  1.00E-15 

   => Asymptotic Correction <=

    X Functional        =    XC_GGA_X_LB
    C Functional        =   XC_LDA_C_VWN
    Bulk Shift          =       0.113162
    GRAC Alpha          =       0.500000
    GRAC Beta           =      40.000000

   => Molecular Quadrature <=

    Radial Scheme          =       TREUTLER
    Pruning Scheme         =           NONE
    Nuclear Scheme         =       TREUTLER

    Blocking Scheme        =         OCTREE
    BS radius alpha        =              1
    Pruning alpha          =              1
    Radial Points          =             75
    Spherical Points       =            302
    Total Points           =         131724
    Total Blocks           =           1043
    Max Points             =            256
    Max Functions          =            348
    Weights Tolerance      =       1.00E-15

   => Loading Basis Set <=

    Name: (THIS_BASIS AUX)
    Role: JKFIT
    Keyword: DF_BASIS_SCF
    atoms 1, 4-6 entry H          line    70 file /home/vance/anaconda3/envs/p4env/share/psi4/basis/aug-cc-pvqz-jkfit.gbs 
    atoms 2      entry CL         line   904 file /home/vance/anaconda3/envs/p4env/share/psi4/basis/aug-cc-pvqz-jkfit.gbs 
    atoms 3      entry N          line   248 file /home/vance/anaconda3/envs/p4env/share/psi4/basis/aug-cc-pvqz-jkfit.gbs 

  ==> Integral Setup <==

  ==> DiskDFJK: Density-Fitted J/K Matrices <==

    J tasked:                  Yes
    K tasked:                  Yes
    wK tasked:                  No
    OpenMP threads:              4
    Integrals threads:           4
    Memory [MiB]:             4532
    Algorithm:                Core
    Integral Cache:           SAVE
    Schwarz Cutoff:          1E-12
    Fitting Condition:       1E-10

   => Auxiliary Basis Set <=

  Basis Set: (THIS_BASIS AUX)
    Blend: AUG-CC-PVQZ-JKFIT
    Number of shells: 152
[...]

    Virtual:                                                              

       6A     -0.103682     7A     -0.053739     8A     -0.053738  
       9A     -0.039073    10A     -0.001442    11A      0.006869  
      12A      0.006870    13A      0.012064    14A      0.021542  
      15A      0.021549    16A      0.032133    17A      0.032134  
      18A      0.042461    19A      0.054242    20A      0.083279  
      21A      0.083282    22A      0.147515    23A      0.152233  
      24A      0.168208    25A      0.170720    26A      0.170725  
      27A      0.183242    28A      0.183244    29A      0.188325  
      30A      0.191379    31A      0.202342    32A      0.202344  
      33A      0.220107    34A      0.220111    35A      0.236316  
      36A      0.252814    37A      0.252817    38A      0.267838  
      39A      0.305937    40A      0.305938    41A      0.331960  
      42A      0.331961    43A      0.339662    44A      0.377582  
      45A      0.377592    46A      0.404683    47A      0.425691  
      48A      0.425695    49A      0.444551    50A      0.495711  
      51A      0.511071    52A      0.535884    53A      0.540130  
      54A      0.540150    55A      0.555524    56A      0.555529  
      57A      0.563618    58A      0.575632    59A      0.580336  
      60A      0.580351    61A      0.595575    62A      0.652579  
      63A      0.652605    64A      0.678190    65A      0.678197  
      66A      0.698496    67A      0.709118    68A      0.709121  
      69A      0.747105    70A      0.761319    71A      0.761328  
      72A      0.773144    73A      0.775644    74A      0.775645  
      75A      0.822147    76A      0.894096    77A      0.902725  
      78A      0.902759    79A      0.903156    80A      0.908027  
      81A      0.908031    82A      0.930346    83A      0.930346  
      84A      0.966890    85A      0.966892    86A      0.996088  
      87A      1.013280    88A      1.013300    89A      1.024638  
      90A      1.121396    91A      1.137704    92A      1.146382  
      93A      1.146392    94A      1.195659    95A      1.202839  
      96A      1.202854    97A      1.241986    98A      1.248952  
      99A      1.248953   100A      1.281289   101A      1.306027  
     102A      1.306044   103A      1.325464   104A      1.361396  
     105A      1.424458   106A      1.424498   107A      1.485417  
     108A      1.485423   109A      1.506990   110A      1.507002  
     111A      1.548647   112A      1.560461   113A      1.568424  
     114A      1.583513   115A      1.583526   116A      1.615251  
     117A      1.646738   118A      1.646742   119A      1.684138  
     120A      1.684156   121A      1.751969   122A      1.763175  
     123A      1.771952   124A      1.771992   125A      1.825878  
     126A      1.825879   127A      1.855122   128A      1.858968  
     129A      1.859873   130A      1.859876   131A      1.902908  
     132A      1.929615   133A      1.929644   134A      1.940882  
     135A      1.985674   136A      1.985675   137A      2.013097  
     138A      2.080708   139A      2.080709   140A      2.107709  
     141A      2.125292   142A      2.125299   143A      2.192680  
     144A      2.216844   145A      2.216854   146A      2.229864  
     147A      2.244917   148A      2.275484   149A      2.275487  
     150A      2.290660   151A      2.316231   152A      2.316239  
     153A      2.390667   154A      2.403418   155A      2.403418  
     156A      2.432728   157A      2.432736   158A      2.448942  
     159A      2.449187   160A      2.517389   161A      2.570847  
     162A      2.570857   163A      2.577631   164A      2.608287  
     165A      2.608315   166A      2.680593   167A      2.680608  
     168A      2.742063   169A      2.765847   170A      2.775596  
     171A      2.775603   172A      2.792379   173A      2.856745  
     174A      2.856750   175A      2.857767   176A      2.875845  
     177A      2.875845   178A      2.951929   179A      3.044734  
     180A      3.044756   181A      3.063277   182A      3.063287  
     183A      3.079360   184A      3.146223   185A      3.146226  
     186A      3.151345   187A      3.287051   188A      3.307469  
     189A      3.307470   190A      3.395434   191A      3.397994  
     192A      3.398009   193A      3.433474   194A      3.433489  
     195A      3.546296   196A      3.587496   197A      3.600140  
     198A      3.600146   199A      3.721074   200A      3.721076  
     201A      3.771741   202A      3.815661   203A      3.815699  
     204A      3.825050   205A      3.886446   206A      3.912561  
     207A      3.912563   208A      4.057568   209A      4.212274  
     210A      4.212281   211A      4.225611   212A      4.266044  
     213A      4.266046   214A      4.432485   215A      4.432503  
     216A      4.446901   217A      4.549885   218A      4.549891  
     219A      4.626128   220A      4.626138   221A      4.679302  
     222A      4.868509   223A      4.868510   224A      4.925024  
     225A      5.055667   226A      5.077613   227A      5.124601  
     228A      5.124609   229A      5.309084   230A      5.309097  
     231A      5.339854   232A      5.339896   233A      5.456657  
     234A      5.456668   235A      5.492122   236A      5.920344  
     237A      5.920345   238A      6.004020   239A      6.145793  
     240A      6.149920   241A      6.165544   242A      6.165545  
     243A      6.270863   244A      6.270867   245A      6.464107  
     246A      6.614596   247A      6.614609   248A      6.631579  
     249A      6.631584   250A      6.746431   251A      6.818790  
     252A      6.849506   253A      6.969270   254A      6.987967  
     255A      6.987974   256A      7.044803   257A      7.273048  
     258A      7.274114   259A      7.274136   260A      7.280629  
     261A      7.376812   262A      7.376817   263A      7.457204  
     264A      7.457218   265A      7.555241   266A      7.574577  
     267A      7.574584   268A      7.648017   269A      7.648036  
     270A      7.715669   271A      7.715685   272A      7.797666  
     273A      7.797681   274A      7.811294   275A      7.891167  
     276A      7.928582   277A      7.928595   278A      8.053386  
     279A      8.053386   280A      8.139328   281A      8.211362  
     282A      8.320868   283A      8.320909   284A      8.385721  
     285A      8.385732   286A      8.488575   287A      8.509188  
     288A      8.509208   289A      8.519859   290A      8.541101  
     291A      8.623287   292A      8.631587   293A      8.631588  
     294A      8.635095   295A      8.863735   296A      8.863755  
     297A      8.901412   298A      8.973179   299A      8.973182  
     300A      9.090400   301A      9.090419   302A      9.162587  
     303A      9.162605   304A      9.176452   305A      9.269415  
     306A      9.281551   307A      9.281567   308A      9.428904  
     309A      9.428914   310A      9.457318   311A      9.625473  
     312A      9.629613   313A      9.629619   314A      9.888589  
     315A      9.888602   316A      9.899072   317A      9.993421  
     318A     10.036362   319A     10.036363   320A     10.054420  
     321A     10.054421   322A     10.339567   323A     10.438985  
     324A     10.438995   325A     10.510514   326A     10.539376  
     327A     10.539379   328A     10.832137   329A     11.450818  
     330A     11.671268   331A     11.671277   332A     11.883389  
     333A     11.970537   334A     11.970555   335A     12.189808  
     336A     12.534002   337A     12.607940   338A     12.607959  
     339A     13.309901   340A     14.484950   341A     14.484961  
     342A     14.700686   343A     30.999405   344A     30.999406  
     345A     31.293121   346A     36.131276   347A     43.193303  
     348A    160.303051  

    Final Occupation by Irrep:
              A 
    DOCC [     5 ]
    NA   [     5 ]
    NB   [     5 ]

  @DF-RKS Final Energy:   -56.51978212293236

   => Energetics <=

    Nuclear Repulsion Energy =             11.9475428385057647
    One-Electron Energy =                 -99.6855987608634848
    Two-Electron Energy =                  37.2620984343322448
    DFT Exchange-Correlation Energy =      -6.0438246349068843
    Empirical Dispersion Energy =           0.0000000000000000
    VV10 Nonlocal Energy =                  0.0000000000000000
    Total Energy =                        -56.5197821229323552

Computation Completed


Properties will be evaluated at   0.000000,   0.000000,   0.000000 [a0]

Properties computed using the SCF density matrix


 Multipole Moments:

 ------------------------------------------------------------------------------------
     Multipole            Electronic (a.u.)      Nuclear  (a.u.)        Total (a.u.)
 ------------------------------------------------------------------------------------

 L = 1.  Multiply by 2.5417464519 to convert [e a0] to [Debye]
 Dipole X            :         -0.0000088            0.0000153            0.0000065
 Dipole Y            :         37.7004900          -38.2729588           -0.5724688
 Dipole Z            :          0.0000000            0.0000000            0.0000000
 Magnitude           :                                                    0.5724688

 ------------------------------------------------------------------------------------

*** tstop() called on cmpsrv002 at Thu Sep 19 14:07:27 2024
Module time:
	user time   =      98.16 seconds =       1.64 minutes
	system time =       3.43 seconds =       0.06 minutes
	total time  =        218 seconds =       3.63 minutes
Total time:
	user time   =     402.29 seconds =       6.70 minutes
	system time =      20.02 seconds =       0.33 minutes
	total time  =        603 seconds =      10.05 minutes

         ---------------------------------------------------------
               SAPT(DFT): Intermolecular Interaction Segment       

                   by Daniel G. A. Smith and Rob Parrish           
         ---------------------------------------------------------

  ==> Algorithm <==

   SAPT DFT Functional             PBE0
   Monomer A GRAC Shift        0.116251
   Monomer B GRAC Shift        0.113162
   Delta HF                        True
   JK Algorithm                      DF

  ==> Preparing SAPT Data Cache <== 

  ==> DiskDFJK: Density-Fitted J/K Matrices <==

    J tasked:                  Yes
    K tasked:                  Yes
    wK tasked:                  No
    OpenMP threads:              4
    Integrals threads:           4
    Memory [MiB]:             4532
    Algorithm:                Core
    Integral Cache:           SAVE
    Schwarz Cutoff:          1E-12
    Fitting Condition:       1E-10

   => Auxiliary Basis Set <=

  Basis Set: (THIS_BASIS AUX)
    Blend: AUG-CC-PVQZ-JKFIT
    Number of shells: 152
    Number of basis functions: 630
    Number of Cartesian functions: 849
    Spherical Harmonics?: true
    Max angular momentum: 5


  ==> E10 Electostatics <== 

    Elst10,r                        -46.56501983 [mEh]

  ==> E10 Exchange <== 

    Exch10(S^2)                      73.33172849 [mEh]
    Exch10                           77.32139740 [mEh]

  ==> E20 Induction <== 

   => Uncoupled Induction <= 

    Ind20,u (A<-B)                  -13.84079886 [mEh]
    Ind20,u (A->B)                  -29.29902828 [mEh]
    Ind20,u                         -43.13982713 [mEh]
    Exch-Ind20,u (A<-B)              10.01262101 [mEh]
    Exch-Ind20,u (A->B)              15.56870289 [mEh]
    Exch-Ind20,u                     25.58132390 [mEh]
    Exch-Ind20,u (A<-B) (S^inf)      11.26756501 [mEh]
    Exch-Ind20,u (A->B) (S^inf)      17.82665818 [mEh]
    Exch-Ind20,u (S^inf)             29.09422318 [mEh]

   => Coupled Induction <= 

   ---------------------------------------------------
              SAPT Coupled Induction Solver           
   ---------------------------------------------------
    Maxiter             =          20
    Convergence         =   1.000E-06
   ---------------------------------------------------
     Iter       (A<-B)           (B->A)      Time [s]
   ---------------------------------------------------
    Guess    1.412475e-01     1.492551e-01          4
        1    2.916146e-02     5.610926e-02          9
        2    9.415640e-03     1.825599e-02         13
        3    1.461880e-03     1.688360e-03         17
        4    1.402599e-04     1.314725e-04         20
        5    2.501978e-05     8.152892e-06         23
        6    1.786176e-06     7.963693e-07*        25
        7    6.653444e-08*    7.963693e-07*        26
   ---------------------------------------------------

    Ind20,r (A<-B)                  -14.15533004 [mEh]
    Ind20,r (A->B)                  -30.97112577 [mEh]
    Ind20,r                         -45.12645580 [mEh]
    Exch-Ind20,r (A<-B)              10.86565534 [mEh]
    Exch-Ind20,r (A->B)              17.48129646 [mEh]
    Exch-Ind20,r                     28.34695180 [mEh]
    Exch-Ind20,r (A<-B) (S^inf)      12.23886528 [mEh]
    Exch-Ind20,r (A->B) (S^inf)      20.03369077 [mEh]
    Exch-Ind20,r (S^inf)             32.27255605 [mEh]
   => Loading Basis Set <=

    Name: (THIS_BASIS AUX)
    Role: RIFIT
    Keyword: DF_BASIS_MP2
    atoms 1, 4-6 entry H          line    30 file /home/vance/anaconda3/envs/p4env/share/psi4/basis/aug-cc-pvqz-ri.gbs 
    atoms 2      entry CL         line   914 file /home/vance/anaconda3/envs/p4env/share/psi4/basis/aug-cc-pvqz-ri.gbs 
    atoms 3      entry N          line   258 file /home/vance/anaconda3/envs/p4env/share/psi4/basis/aug-cc-pvqz-ri.gbs 



  ==> E20 Dispersion (CHF FDDS) <== 

   Legendre Points:          10
   Lambda Shift:          0.300
   Fxc Kernal:             ALDA
   (P|Fxc|Q) Thresh:  1.000e-06
  DFHelper Memory: AOs need 0.645 GiB; user supplied 5.960 GiB. 
  Using in-core AOs.

  ==> DFHelper <==
    NBF:                             348
    NAux:                            682
    Schwarz Cutoff:                1E-12
    Mask sparsity (%):                 1
    DFH Avail. Memory [GiB]:       5.960
    OpenMP threads:                    4
    Algorithm:                    DIRECT
    AO Core:                        True
    MO Core:                       False
    Hold Metric:                   False
    Metric Power:                  0.000
    Fitting Condition:             1E-12
    Q Shell Max:                      11


  DFHelper Memory: AOs need 0.652 GiB; user supplied 5.960 GiB. 
  Using in-core AOs.


   => Time Integration <= 

       Omega       Weight       Disp20,u         Disp20   time [s]
   2.269e+01    6.667e-02      4.624e-04      4.360e-04          1
   4.147e+00    1.495e-01      7.311e-03      6.650e-03          2
   1.572e+00    2.191e-01      2.025e-02      1.708e-02          3
   7.589e-01    2.693e-01      3.128e-02      2.375e-02          4
   4.049e-01    2.955e-01      3.281e-02      2.276e-02          5
   2.223e-01    2.955e-01      2.617e-02      1.732e-02          5
   1.186e-01    2.693e-01      1.785e-02      1.161e-02          6
   5.727e-02    2.191e-01      1.115e-02      7.218e-03          7
   2.170e-02    1.495e-01      6.256e-03      4.044e-03          7
   3.966e-03    6.667e-02      2.497e-03      1.614e-03          8

    Disp20,u                        -24.83458060 [mEh]
    Disp20                          -17.90343905 [mEh]

  ==> E20 Dispersion (MP2) <== 


    Disp20 (MP2)                    -24.75904175 [mEh]
    Exch-Disp20,u                     5.49029691 [mEh]
    Scaling Scheme                    FIXED
    Scaling Factor                    0.770
    Est. Exch-Disp20,r                4.22752862 [mEh]

   SAPT(DFT) Results
  ---------------------------------------------------------------------------------------------------------
    Electrostatics                  -46.56501983 [mEh]    -29.21999109 [kcal/mol]   -122.25644273 [kJ/mol]
      Elst1,r                       -46.56501983 [mEh]    -29.21999109 [kcal/mol]   -122.25644273 [kJ/mol]

    Exchange                         77.32139740 [mEh]     48.51990939 [kcal/mol]    203.00730091 [kJ/mol]
      Exch1                          77.32139740 [mEh]     48.51990939 [kcal/mol]    203.00730091 [kJ/mol]
      Exch1(S^2)                     73.33172849 [mEh]     46.01635435 [kcal/mol]    192.53242662 [kJ/mol]

    Induction                       -34.65260126 [mEh]    -21.74483558 [kcal/mol]    -90.98039208 [kJ/mol]
      Ind2,r                        -45.12645580 [mEh]    -28.31727853 [kcal/mol]   -118.47949339 [kJ/mol]
      Exch-Ind2,r                    28.34695180 [mEh]     17.78798081 [kcal/mol]     74.42491169 [kJ/mol]
      Induction (A<-B)               -3.28967469 [mEh]     -2.06430204 [kcal/mol]     -8.63703972 [kJ/mol]
      Induction (A->B)              -13.48982931 [mEh]     -8.46499569 [kcal/mol]    -35.41754198 [kJ/mol]
      delta HF,r (2)                -17.87309726 [mEh]    -11.21553786 [kcal/mol]    -46.92581039 [kJ/mol]

    Dispersion                      -13.67591043 [mEh]     -8.58176336 [kcal/mol]    -35.90609788 [kJ/mol]
      Disp2,r                       -17.90343905 [mEh]    -11.23457762 [kcal/mol]    -47.00547274 [kJ/mol]
      Disp2,u                       -24.75904175 [mEh]    -15.53653326 [kcal/mol]    -65.00485516 [kJ/mol]
      Est. Exch-Disp2,r               4.22752862 [mEh]      2.65281426 [kcal/mol]     11.09937487 [kJ/mol]
      Exch-Disp2,u                    5.49029691 [mEh]      3.44521333 [kcal/mol]     14.41477255 [kJ/mol]

    Total SAPT(DFT)                 -17.57213412 [mEh]    -11.02668064 [kcal/mol]    -46.13563178 [kJ/mol]
  ---------------------------------------------------------------------------------------------------------

*** tstop() called on cmpsrv002 at Thu Sep 19 15:17:38 2024
Module time:
	user time   =     412.25 seconds =       6.87 minutes
	system time =      31.85 seconds =       0.53 minutes
	total time  =       4428 seconds =      73.80 minutes
Total time:
	user time   =     715.45 seconds =      11.92 minutes
	system time =      47.77 seconds =       0.80 minutes
	total time  =       4819 seconds =      80.32 minutes

Traceback (most recent call last):
  File "/home/vance/anaconda3/envs/p4env/bin/psi4", line 387, in <module>
    exec(content)
  File "<string>", line 61, in <module>
  File "/home/vance/anaconda3/envs/p4env/lib/python3.12/site-packages/psi4/driver/p4util/python_helpers.py", line 1121, in _core_variable
    raise KeyError(f"psi4.core.variable: Requested variable '{key}' was not set!\n")

KeyError: "psi4.core.variable: Requested variable 'SAPT IND20,R ENERGY' was not set!\n"


Printing out the relevant lines from the Psithon --> Python processed input file:
    eelst = psi4.core.variable('SAPT ELST ENERGY')
    eexch = psi4.core.variable('SAPT EXCH ENERGY')
    eind = psi4.core.variable('SAPT IND ENERGY')
    edisp = psi4.core.variable('SAPT DISP ENERGY')
    esapt = psi4.core.variable('SAPT TOTAL ENERGY')
--> eind20r = psi4.core.variable('SAPT IND20,R ENERGY')
    eexind20r = psi4.core.variable('SAPT EXCH-IND20,R ENERGY')
    eind20u = psi4.core.variable('SAPT IND20,U ENERGY')
    eexind20u = psi4.core.variable('SAPT EXCH-IND20,U ENERGY')
    edisp20 = psi4.core.variable('SAPT DISP20 ENERGY')
    eexdisp20 = psi4.core.variable('SAPT EXCH-DISP20 ENERGY')

!--------------------------------------------------------------------------------!
!                                                                                !
!  "psi4.core.variable: Requested variable 'SAPT IND20,R ENERGY' was not set!\n" !
!                                                                                !
!--------------------------------------------------------------------------------!

    Psi4 stopped on: Thursday, 19 September 2024 03:17PM
    Psi4 wall time for execution: 1:20:19.23

*** Psi4 encountered an error. Buy a developer more coffee!
*** Resources and help at github.com/psi4/psi4.
