
    -----------------------------------------------------------------------
          Psi4: An Open-Source Ab Initio Electronic Structure Package
                               Psi4 1.9.1 release

                         Git: Rev {} zzzzzzz 


    D. G. A. Smith, L. A. Burns, A. C. Simmonett, R. M. Parrish,
    M. C. Schieber, R. Galvelis, P. Kraus, H. Kruse, R. Di Remigio,
    A. Alenaizan, A. M. James, S. Lehtola, J. P. Misiewicz, M. Scheurer,
    R. A. Shaw, J. B. Schriber, Y. Xie, Z. L. Glick, D. A. Sirianni,
    J. S. O'Brien, J. M. Waldrop, A. Kumar, E. G. Hohenstein,
    B. P. Pritchard, B. R. Brooks, H. F. Schaefer III, A. Yu. Sokolov,
    K. Patkowski, A. E. DePrince III, U. Bozkaya, R. A. King,
    F. A. Evangelista, J. M. Turney, T. D. Crawford, C. D. Sherrill,
    J. Chem. Phys. 152(18) 184108 (2020). https://doi.org/10.1063/5.0006002

                            Additional Code Authors
    E. T. Seidl, C. L. Janssen, E. F. Valeev, M. L. Leininger,
    J. F. Gonthier, R. M. Richard, H. R. McAlexander, M. Saitow, X. Wang,
    P. Verma, M. H. Lechner, A. Jiang, S. Behnle, A. G. Heide,
    M. F. Herbst, and D. L. Poole

             Previous Authors, Complete List of Code Contributors,
                       and Citations for Specific Modules
    https://github.com/psi4/psi4/blob/master/codemeta.json
    https://github.com/psi4/psi4/graphs/contributors
    http://psicode.org/psi4manual/master/introduction.html#citing-psifour

    -----------------------------------------------------------------------


    Psi4 started on: Thursday, 19 September 2024 01:57PM

    Process ID: 605151
    Host:       cmpsrv002
    PSIDATADIR: /home/vance/anaconda3/envs/p4env/share/psi4
    Memory:     500.0 MiB
    Threads:    4
    
  ==> Input File <==

--------------------------------------------------------------------------
#charge=0 charge_a=0 charge_b=0 selection_a=1-2 selection_b=3-6 scaling=0.85 benchmark_Eint=-7.319 benchmark_unit=kcal/mol group=XH-N
set_num_threads(4)
memory 8 GB
basis this_basis {
    assign    aug-cc-pVQZ
}

molecule {
     0 1
    --
     0 1
     H        0.00000       -0.31269        0.00000
    Cl       -0.00000        1.03066        0.00000
    --
     0 1
     N        0.00000       -1.77621        0.00000
     H       -0.47318       -2.13522        0.81958
     H       -0.47318       -2.13522       -0.81958
     H        0.94637       -2.13522        0.00000
}

set {
    sapt_dft_functional     PBE0
    scf_type                DF
    freeze_core             true
    sapt_dft_grac_shift_a    0.116251
    sapt_dft_grac_shift_b    0.113162
    sapt_dft_do_hybrid      true
    do_ind_exch_sinf        true
    do_disp_exch_sinf       true
}

nrg = energy('sapt(DFT)')

eelst = psi4.variable('SAPT ELST ENERGY')
eexch = psi4.variable('SAPT EXCH ENERGY')
eind = psi4.variable('SAPT IND ENERGY')
edisp = psi4.variable('SAPT DISP ENERGY')
esapt = psi4.variable('SAPT TOTAL ENERGY')
eind20r = psi4.variable('SAPT IND20,R ENERGY')
eexind20r = psi4.variable('SAPT EXCH-IND20,R ENERGY')
eind20u = psi4.variable('SAPT IND20,U ENERGY')
eexind20u = psi4.variable('SAPT EXCH-IND20,U ENERGY')
edisp20 = psi4.variable('SAPT DISP20 ENERGY')
eexdisp20 = psi4.variable('SAPT EXCH-DISP20 ENERGY')
eexch10 = psi4.variable('SAPT EXCH10 ENERGY')
eexch10s2 = psi4.variable('SAPT EXCH10(S^2) ENERGY')
print('sapt elst energy =', eelst)
print('sapt total induction energy =', eind)
print('sapt total dispersion energy =', edisp)
print('sapt total energy =', esapt)
print('sapt ind20,r energy =', eind20r)
print('sapt exch-ind20,r energy =', eexind20r)
print('sapt ind20,u energy =', eind20u)
print('sapt exch-ind20,u energy =', eexind20u)
print('sapt disp20 (u or r?) energy =', edisp20)
print('sapt exch-disp20 (u or r?) energy =', eexdisp20)
print('sapt exch10 (u or r? which s?) energy =', eexch10)
print('sapt exch10 s^2 (u or r?) energy =', eexch10s2)
--------------------------------------------------------------------------
  Threads set to 4 by Python driver.

  Memory set to   7.451 GiB by Python driver.

Scratch directory: /scratch2/vance/psi4/

*** tstart() called on cmpsrv002
*** at Thu Sep 19 13:57:25 2024

  SAPT does not make use of molecular symmetry, further calculations in C1 point group.

         ---------------------------------------------------------
                            SAPT(DFT) Procedure                    

                           by Daniel G. A. Smith                   
         ---------------------------------------------------------

Warning! The default value of SAPT_DFT_EXCH_DISP_SCALE_SCHEME has changed from DISP to FIXED. Please be careful comparing results with earlier versions. 

  ==> Algorithm <==

   SAPT DFT Functional             PBE0
   Monomer A GRAC Shift        0.116251
   Monomer B GRAC Shift        0.113162
   Delta HF                        True
   JK Algorithm                      DF

   Required computations:
     HF  (Dimer)
     HF  (Monomer A)
     HF  (Monomer B)
     DFT (Monomer A)
     DFT (Monomer B)

   => Libint2 <=

    Primary   basis highest AM E, G, H:  6, 6, 3
    Auxiliary basis highest AM E, G, H:  7, 7, 4
    Onebody   basis highest AM E, G, H:  -, -, -
    Solid Harmonics ordering:            Gaussian

*** tstart() called on cmpsrv002
*** at Thu Sep 19 13:57:25 2024

   => Loading Basis Set <=

    Name: THIS_BASIS
    Role: ORBITAL
    Keyword: BASIS
    atoms 1, 4-6 entry H          line    40 file /home/vance/anaconda3/envs/p4env/share/psi4/basis/aug-cc-pvqz.gbs 
    atoms 2      entry CL         line  1222 file /home/vance/anaconda3/envs/p4env/share/psi4/basis/aug-cc-pvqz.gbs 
    atoms 3      entry N          line   363 file /home/vance/anaconda3/envs/p4env/share/psi4/basis/aug-cc-pvqz.gbs 


         ---------------------------------------------------------
                         SAPT(DFT): delta HF Dimer                 
         ---------------------------------------------------------
                                   SCF
               by Justin Turney, Rob Parrish, Andy Simmonett
                          and Daniel G. A. Smith
                              RHF Reference
                        4 Threads,   7629 MiB Core
         ---------------------------------------------------------

  ==> Geometry <==

    Molecular point group: c1
    Full point group: Cs

    Geometry (in Angstrom), charge = 0, multiplicity = 1:

       Center              X                  Y                   Z               Mass       
    ------------   -----------------  -----------------  -----------------  -----------------
         H           -0.000000190144    -0.395659973467     0.000000000000     1.007825032230
         CL          -0.000000190144     0.947690026533     0.000000000000    34.968852682000
         N           -0.000000190144    -1.859179973467     0.000000000000    14.003074004430
         H           -0.473180190144    -2.218189973467     0.819580000000     1.007825032230
         H           -0.473180190144    -2.218189973467    -0.819580000000     1.007825032230
         H            0.946369809856    -2.218189973467     0.000000000000     1.007825032230

  Running in c1 symmetry.

  Rotational constants: A =      6.22544  B =      0.17524  C =      0.17524 [cm^-1]
  Rotational constants: A = 186633.95025  B =   5253.59848  C =   5253.59804 [MHz]
  Nuclear repulsion =   52.550876791310039

  Charge       = 0
  Multiplicity = 1
  Electrons    = 28
  Nalpha       = 14
  Nbeta        = 14

  ==> Algorithm <==

  SCF Algorithm Type is DF.
  DIIS enabled.
  MOM disabled.
  Fractional occupation disabled.
  Guess Type is SAD.
  Energy threshold   = 1.00e-08
  Density threshold  = 1.00e-08
  Integral threshold = 1.00e-12

  ==> Primary Basis <==

  Basis Set: THIS_BASIS
    Blend: AUG-CC-PVQZ
    Number of shells: 98
    Number of basis functions: 348
    Number of Cartesian functions: 434
    Spherical Harmonics?: true
    Max angular momentum: 4

   => Loading Basis Set <=

    Name: (THIS_BASIS AUX)
    Role: JKFIT
    Keyword: DF_BASIS_SCF
    atoms 1, 4-6 entry H          line    70 file /home/vance/anaconda3/envs/p4env/share/psi4/basis/aug-cc-pvqz-jkfit.gbs 
    atoms 2      entry CL         line   904 file /home/vance/anaconda3/envs/p4env/share/psi4/basis/aug-cc-pvqz-jkfit.gbs 
    atoms 3      entry N          line   248 file /home/vance/anaconda3/envs/p4env/share/psi4/basis/aug-cc-pvqz-jkfit.gbs 

  ==> Integral Setup <==

  ==> DiskDFJK: Density-Fitted J/K Matrices <==

    J tasked:                  Yes
    K tasked:                  Yes
    wK tasked:                  No
    OpenMP threads:              4
    Integrals threads:           4
    Memory [MiB]:             5722
    Algorithm:                Core
    Integral Cache:           SAVE
    Schwarz Cutoff:          1E-12
    Fitting Condition:       1E-10

   => Auxiliary Basis Set <=

  Basis Set: (THIS_BASIS AUX)
    Blend: AUG-CC-PVQZ-JKFIT
    Number of shells: 152
    Number of basis functions: 630
    Number of Cartesian functions: 849
    Spherical Harmonics?: true
    Max angular momentum: 5

  Minimum eigenvalue in the overlap matrix is 7.3171396103E-06.
  Reciprocal condition number of the overlap matrix is 5.9269308122E-07.
    Using symmetric orthogonalization.

  ==> Pre-Iterations <==

  SCF Guess: Superposition of Atomic Densities via on-the-fly atomic UHF (no occupation information).

   -------------------------
    Irrep   Nso     Nmo    
   -------------------------
     A        348     348 
   -------------------------
    Total     348     348
   -------------------------

  ==> Iterations <==

                           Total Energy        Delta E     RMS |[F,P]|

   @DF-RHF iter SAD:  -515.80989467725738   -5.15810e+02   0.00000e+00 
   @DF-RHF iter   1:  -516.24487153392909   -4.34977e-01   1.26114e-03 ADIIS/DIIS
   @DF-RHF iter   2:  -516.31806145288476   -7.31899e-02   6.07100e-04 ADIIS/DIIS
   @DF-RHF iter   3:  -516.33445912287164   -1.63977e-02   9.35394e-05 DIIS
   @DF-RHF iter   4:  -516.33533038928374   -8.71266e-04   3.47674e-05 DIIS
   @DF-RHF iter   5:  -516.33542159332785   -9.12040e-05   7.14641e-06 DIIS
   @DF-RHF iter   6:  -516.33542993182198   -8.33849e-06   1.52509e-06 DIIS
   @DF-RHF iter   7:  -516.33543040135407   -4.69532e-07   4.72014e-07 DIIS
   @DF-RHF iter   8:  -516.33543044160956   -4.02555e-08   1.23602e-07 DIIS
   @DF-RHF iter   9:  -516.33543044375676   -2.14720e-09   2.66096e-08 DIIS
   @DF-RHF iter  10:  -516.33543044387898   -1.22213e-10   5.29216e-09 DIIS
  Energy and wave function converged.


  ==> Post-Iterations <==

    Orbital Energies [Eh]
    ---------------------

    Doubly Occupied:                                                      

       1A   -104.766396     2A    -15.601933     3A    -10.494582  
       4A     -7.961567     5A     -7.960380     6A     -7.960380  
       7A     -1.215052     8A     -1.043217     9A     -0.695790  
      10A     -0.695787    11A     -0.632862    12A     -0.432670  
      13A     -0.413320    14A     -0.413320  

    Virtual:                                                              

      15A      0.013708    16A      0.036256    17A      0.036256  
      18A      0.052814    19A      0.103984    20A      0.109706  
      21A      0.116984    22A      0.116984    23A      0.124891  
      24A      0.124891    25A      0.142337    26A      0.161723  
      27A      0.161723    28A      0.184553    29A      0.199490  
      30A      0.199490    31A      0.265491    32A      0.267890  
      33A      0.290745    34A      0.292050    35A      0.292050  
      36A      0.304353    37A      0.304353    38A      0.320207  
      39A      0.325422    40A      0.331886    41A      0.331886  
      42A      0.356338    43A      0.356338    44A      0.382136  
      45A      0.382136    46A      0.385973    47A      0.430250  
      48A      0.430250    49A      0.433216    50A      0.460911  
      51A      0.460911    52A      0.476175    53A      0.497024  
      54A      0.534795    55A      0.534795    56A      0.606106  
      57A      0.606106    58A      0.610634    59A      0.654885  
      60A      0.671541    61A      0.676302    62A      0.676302  
      63A      0.693165    64A      0.693165    65A      0.710069  
      66A      0.710274    67A      0.710274    68A      0.716965  
      69A      0.746313    70A      0.753316    71A      0.753317  
      72A      0.784323    73A      0.784324    74A      0.819740  
      75A      0.822780    76A      0.822781    77A      0.839771  
      78A      0.878524    79A      0.887168    80A      0.887169  
      81A      0.913212    82A      0.929045    83A      0.929046  
      84A      0.949080    85A      0.949080    86A      0.959515  
      87A      0.982429    88A      0.982429    89A      1.000899  
      90A      1.076545    91A      1.076545    92A      1.096228  
      93A      1.117624    94A      1.117624    95A      1.205004  
      96A      1.271663    97A      1.296077    98A      1.296077  
      99A      1.311554   100A      1.311555   101A      1.334009  
     102A      1.360794   103A      1.360794   104A      1.364424  
     105A      1.412583   106A      1.412584   107A      1.419761  
     108A      1.462524   109A      1.494780   110A      1.523705  
     111A      1.523707   112A      1.545546   113A      1.551526  
     114A      1.551527   115A      1.661001   116A      1.661001  
     117A      1.713976   118A      1.713976   119A      1.719267  
     120A      1.728469   121A      1.768038   122A      1.768039  
     123A      1.769961   124A      1.797972   125A      1.812586  
     126A      1.812586   127A      1.817807   128A      1.817808  
     129A      1.900647   130A      1.900648   131A      1.905668  
     132A      1.908825   133A      1.916218   134A      1.916219  
     135A      1.949031   136A      1.974854   137A      1.974854  
     138A      2.033612   139A      2.058033   140A      2.058033  
     141A      2.076710   142A      2.088669   143A      2.088669  
     144A      2.113288   145A      2.121129   146A      2.130878  
     147A      2.131129   148A      2.131129   149A      2.154782  
     150A      2.154783   151A      2.161085   152A      2.227059  
     153A      2.259708   154A      2.259709   155A      2.288025  
     156A      2.352798   157A      2.352798   158A      2.386920  
     159A      2.466131   160A      2.466131   161A      2.469984  
     162A      2.479419   163A      2.479420   164A      2.542038  
     165A      2.579014   166A      2.579015   167A      2.600006  
     168A      2.610395   169A      2.610399   170A      2.670893  
     171A      2.670894   172A      2.679445   173A      2.835088  
     174A      2.874514   175A      2.874514   176A      2.880848  
     177A      2.903148   178A      2.903149   179A      3.005997  
     180A      3.005998   181A      3.030692   182A      3.045516  
     183A      3.110252   184A      3.138181   185A      3.138181  
     186A      3.184114   187A      3.184116   188A      3.190891  
     189A      3.255260   190A      3.255262   191A      3.301449  
     192A      3.331565   193A      3.331566   194A      3.495987  
     195A      3.509809   196A      3.509810   197A      3.561890  
     198A      3.561892   199A      3.589548   200A      3.684755  
     201A      3.769639   202A      3.790475   203A      3.790477  
     204A      3.843021   205A      3.843021   206A      3.959739  
     207A      3.959739   208A      3.973539   209A      4.052786  
     210A      4.139360   211A      4.179817   212A      4.186797  
     213A      4.186797   214A      4.235417   215A      4.235421  
     216A      4.312569   217A      4.410556   218A      4.410556  
     219A      4.468645   220A      4.468645   221A      4.552494  
     222A      4.647266   223A      4.647268   224A      4.692897  
     225A      4.764296   226A      4.780115   227A      4.780115  
     228A      4.780968   229A      4.791653   230A      4.801091  
     231A      4.801091   232A      4.812712   233A      4.818100  
     234A      4.819314   235A      4.819315   236A      4.947193  
     237A      4.947194   238A      5.011429   239A      5.011431  
     240A      5.012912   241A      5.066954   242A      5.154704  
     243A      5.154704   244A      5.175235   245A      5.175235  
     246A      5.251552   247A      5.251553   248A      5.419990  
     249A      5.422139   250A      5.422140   251A      5.543486  
     252A      5.921840   253A      5.921842   254A      5.984012  
     255A      6.326799   256A      6.767716   257A      6.773258  
     258A      6.773259   259A      6.781484   260A      6.872225  
     261A      6.954580   262A      6.954583   263A      6.986268  
     264A      6.986271   265A      7.339244   266A      7.358836  
     267A      7.358837   268A      7.382870   269A      7.409865  
     270A      7.409868   271A      7.437333   272A      7.650750  
     273A      7.667100   274A      7.667106   275A      7.772854  
     276A      7.869563   277A      7.869571   278A      8.013825  
     279A      8.013828   280A      8.098262   281A      8.098267  
     282A      8.190128   283A      8.287647   284A      8.287649  
     285A      8.313352   286A      8.449559   287A      8.449563  
     288A      8.482528   289A      8.551463   290A      8.615723  
     291A      8.615727   292A      8.791437   293A      8.791439  
     294A      8.875200   295A      8.930733   296A      8.937656  
     297A      8.937656   298A      8.944551   299A      8.944554  
     300A      8.947508   301A      9.041711   302A      9.093456  
     303A      9.093459   304A      9.139594   305A      9.206093  
     306A      9.206095   307A      9.379913   308A      9.379918  
     309A      9.624260   310A      9.649186   311A      9.649188  
     312A      9.706344   313A      9.728019   314A      9.728021  
     315A      9.778488   316A      9.837413   317A      9.837415  
     318A      9.894505   319A     10.029421   320A     10.029426  
     321A     10.068378   322A     10.210746   323A     10.210747  
     324A     10.412765   325A     10.530004   326A     10.530007  
     327A     10.829663   328A     10.884674   329A     10.884679  
     330A     10.903491   331A     11.025934   332A     11.025939  
     333A     11.554418   334A     11.886020   335A     12.160368  
     336A     12.161024   337A     12.161032   338A     12.494742  
     339A     12.494757   340A     12.765516   341A     13.013621  
     342A     13.158159   343A     13.158168   344A     15.080842  
     345A     15.080853   346A     15.316713   347A     26.753470  
     348A     37.872990  

    Final Occupation by Irrep:
              A 
    DOCC [    14 ]
    NA   [    14 ]
    NB   [    14 ]

  @DF-RHF Final Energy:  -516.33543044387898

   => Energetics <=

    Nuclear Repulsion Energy =             52.5508767913100385
    One-Electron Energy =                -817.1981009129092399
    Two-Electron Energy =                 248.3117936777201180
    Total Energy =                       -516.3354304438789768

Computation Completed


Properties will be evaluated at   0.000000,   0.000000,   0.000000 [a0]

Properties computed using the SCF density matrix


 Multipole Moments:

 ------------------------------------------------------------------------------------
     Multipole            Electronic (a.u.)      Nuclear  (a.u.)        Total (a.u.)
 ------------------------------------------------------------------------------------

 L = 1.  Multiply by 2.5417464519 to convert [e a0] to [Debye]
 Dipole X            :         -0.0000055            0.0000088            0.0000033
 Dipole Y            :          5.3236085           -7.4715222           -2.1479137
 Dipole Z            :          0.0000000            0.0000000            0.0000000
 Magnitude           :                                                    2.1479137

 ------------------------------------------------------------------------------------

*** tstop() called on cmpsrv002 at Thu Sep 19 13:58:02 2024
Module time:
	user time   =      27.86 seconds =       0.46 minutes
	system time =       3.41 seconds =       0.06 minutes
	total time  =         37 seconds =       0.62 minutes
Total time:
	user time   =      27.86 seconds =       0.46 minutes
	system time =       3.41 seconds =       0.06 minutes
	total time  =         37 seconds =       0.62 minutes
   => Libint2 <=

    Primary   basis highest AM E, G, H:  6, 6, 3
    Auxiliary basis highest AM E, G, H:  7, 7, 4
    Onebody   basis highest AM E, G, H:  -, -, -
    Solid Harmonics ordering:            Gaussian

*** tstart() called on cmpsrv002
*** at Thu Sep 19 13:58:03 2024

   => Loading Basis Set <=

    Name: THIS_BASIS
    Role: ORBITAL
    Keyword: BASIS
    atoms 1, 4-6 entry H          line    40 file /home/vance/anaconda3/envs/p4env/share/psi4/basis/aug-cc-pvqz.gbs 
    atoms 2      entry CL         line  1222 file /home/vance/anaconda3/envs/p4env/share/psi4/basis/aug-cc-pvqz.gbs 
    atoms 3      entry N          line   363 file /home/vance/anaconda3/envs/p4env/share/psi4/basis/aug-cc-pvqz.gbs 


         ---------------------------------------------------------
                       SAPT(DFT): delta HF Monomer A               
         ---------------------------------------------------------
                                   SCF
               by Justin Turney, Rob Parrish, Andy Simmonett
                          and Daniel G. A. Smith
                              RHF Reference
                        4 Threads,   7629 MiB Core
         ---------------------------------------------------------

  ==> Geometry <==

    Molecular point group: c1
    Full point group: Cs

    Geometry (in Angstrom), charge = 0, multiplicity = 1:

       Center              X                  Y                   Z               Mass       
    ------------   -----------------  -----------------  -----------------  -----------------
         H           -0.000000190144    -0.395659973467     0.000000000000     1.007825032230
         CL          -0.000000190144     0.947690026533     0.000000000000    34.968852682000
      Gh(N)          -0.000000190144    -1.859179973467     0.000000000000    14.003074004430
      Gh(H)          -0.473180190144    -2.218189973467     0.819580000000     1.007825032230
      Gh(H)          -0.473180190144    -2.218189973467    -0.819580000000     1.007825032230
      Gh(H)           0.946369809856    -2.218189973467     0.000000000000     1.007825032230

  Running in c1 symmetry.

  Rotational constants: A =      6.22544  B =      0.17524  C =      0.17524 [cm^-1]
  Rotational constants: A = 186633.95025  B =   5253.59848  C =   5253.59804 [MHz]
  Nuclear repulsion =    6.696700473733578

  Charge       = 0
  Multiplicity = 1
  Electrons    = 18
  Nalpha       = 9
  Nbeta        = 9

  ==> Algorithm <==

  SCF Algorithm Type is DF.
  DIIS enabled.
  MOM disabled.
  Fractional occupation disabled.
  Guess Type is SAD.
  Energy threshold   = 1.00e-08
  Density threshold  = 1.00e-08
  Integral threshold = 1.00e-12

  ==> Primary Basis <==

  Basis Set: THIS_BASIS
    Blend: AUG-CC-PVQZ
    Number of shells: 98
    Number of basis functions: 348
    Number of Cartesian functions: 434
    Spherical Harmonics?: true
    Max angular momentum: 4

   => Loading Basis Set <=

    Name: (THIS_BASIS AUX)
    Role: JKFIT
    Keyword: DF_BASIS_SCF
    atoms 1, 4-6 entry H          line    70 file /home/vance/anaconda3/envs/p4env/share/psi4/basis/aug-cc-pvqz-jkfit.gbs 
    atoms 2      entry CL         line   904 file /home/vance/anaconda3/envs/p4env/share/psi4/basis/aug-cc-pvqz-jkfit.gbs 
    atoms 3      entry N          line   248 file /home/vance/anaconda3/envs/p4env/share/psi4/basis/aug-cc-pvqz-jkfit.gbs 

  ==> Integral Setup <==

  ==> DiskDFJK: Density-Fitted J/K Matrices <==

    J tasked:                  Yes
    K tasked:                  Yes
    wK tasked:                  No
    OpenMP threads:              4
    Integrals threads:           4
    Memory [MiB]:             5722
    Algorithm:                Core
    Integral Cache:           SAVE
    Schwarz Cutoff:          1E-12
    Fitting Condition:       1E-10

   => Auxiliary Basis Set <=

  Basis Set: (THIS_BASIS AUX)
    Blend: AUG-CC-PVQZ-JKFIT
    Number of shells: 152
    Number of basis functions: 630
    Number of Cartesian functions: 849
    Spherical Harmonics?: true
    Max angular momentum: 5

  Minimum eigenvalue in the overlap matrix is 7.3171396103E-06.
  Reciprocal condition number of the overlap matrix is 5.9269308122E-07.
    Using symmetric orthogonalization.

  ==> Pre-Iterations <==

  SCF Guess: Superposition of Atomic Densities via on-the-fly atomic UHF (no occupation information).

   -------------------------
    Irrep   Nso     Nmo    
   -------------------------
     A        348     348 
   -------------------------
    Total     348     348
   -------------------------

  ==> Iterations <==

                           Total Energy        Delta E     RMS |[F,P]|

   @DF-RHF iter SAD:  -459.87084647078126   -4.59871e+02   0.00000e+00 
   @DF-RHF iter   1:  -460.08497958958901   -2.14133e-01   5.45022e-04 ADIIS/DIIS
   @DF-RHF iter   2:  -460.10489083022810   -1.99112e-02   2.29978e-04 ADIIS/DIIS
   @DF-RHF iter   3:  -460.10765207886686   -2.76125e-03   4.35768e-05 DIIS
   @DF-RHF iter   4:  -460.10799654060907   -3.44462e-04   1.25280e-05 DIIS
   @DF-RHF iter   5:  -460.10803013580812   -3.35952e-05   1.76667e-06 DIIS
   @DF-RHF iter   6:  -460.10803071756595   -5.81758e-07   3.81243e-07 DIIS
   @DF-RHF iter   7:  -460.10803073209087   -1.45249e-08   8.65335e-08 DIIS
   @DF-RHF iter   8:  -460.10803073326235   -1.17149e-09   1.69267e-08 DIIS
   @DF-RHF iter   9:  -460.10803073330555   -4.32010e-11   1.76184e-09 DIIS
  Energy and wave function converged.


  ==> Post-Iterations <==

    Orbital Energies [Eh]
    ---------------------

    Doubly Occupied:                                                      

       1A   -104.852116     2A    -10.576157     3A     -8.043292  
       4A     -8.041574     5A     -8.041574     6A     -1.105207  
       7A     -0.610897     8A     -0.475366     9A     -0.475366  

    Virtual:                                                              

      10A      0.019043    11A      0.042345    12A      0.042345  
      13A      0.044875    14A      0.084879    15A      0.099654  
      16A      0.105846    17A      0.105846    18A      0.123512  
      19A      0.123512    20A      0.132910    21A      0.168938  
      22A      0.183599    23A      0.183599    24A      0.194208  
      25A      0.217515    26A      0.217515    27A      0.275098  
      28A      0.275818    29A      0.275818    30A      0.280065  
      31A      0.283921    32A      0.283921    33A      0.284231  
      34A      0.313179    35A      0.324230    36A      0.324230  
      37A      0.352451    38A      0.352452    39A      0.377005  
      40A      0.406734    41A      0.406734    42A      0.417426  
      43A      0.460810    44A      0.460810    45A      0.461328  
      46A      0.479897    47A      0.482765    48A      0.482765  
      49A      0.543536    50A      0.612067    51A      0.612067  
      52A      0.623648    53A      0.623648    54A      0.627221  
      55A      0.627222    56A      0.637874    57A      0.653826  
      58A      0.653827    59A      0.672861    60A      0.672861  
      61A      0.684257    62A      0.703435    63A      0.723074  
      64A      0.729402    65A      0.788695    66A      0.788696  
      67A      0.814816    68A      0.821775    69A      0.821776  
      70A      0.827699    71A      0.851333    72A      0.859921  
      73A      0.859922    74A      0.906078    75A      0.924122  
      76A      0.924123    77A      0.935024    78A      0.959086  
      79A      0.959087    80A      0.980389    81A      0.980389  
      82A      0.998334    83A      1.031091    84A      1.031091  
      85A      1.048935    86A      1.114403    87A      1.125293  
      88A      1.125293    89A      1.140121    90A      1.140121  
      91A      1.202876    92A      1.241308    93A      1.241308  
      94A      1.273075    95A      1.322164    96A      1.322165  
      97A      1.357679    98A      1.377704    99A      1.377705  
     100A      1.424437   101A      1.446151   102A      1.446152  
     103A      1.485909   104A      1.533988   105A      1.543642  
     106A      1.559489   107A      1.559490   108A      1.629387  
     109A      1.629388   110A      1.673385   111A      1.693857  
     112A      1.693858   113A      1.739027   114A      1.759277  
     115A      1.793303   116A      1.793303   117A      1.794906  
     118A      1.841577   119A      1.846631   120A      1.846632  
     121A      1.859512   122A      1.859512   123A      1.870515  
     124A      1.870515   125A      1.900133   126A      1.900134  
     127A      1.929674   128A      1.958603   129A      1.990342  
     130A      1.990342   131A      2.002970   132A      2.002971  
     133A      2.024182   134A      2.055794   135A      2.060757  
     136A      2.095688   137A      2.099627   138A      2.100561  
     139A      2.100562   140A      2.108260   141A      2.108260  
     142A      2.139216   143A      2.155784   144A      2.155785  
     145A      2.202786   146A      2.226086   147A      2.226086  
     148A      2.252707   149A      2.252707   150A      2.308726  
     151A      2.316559   152A      2.329221   153A      2.329223  
     154A      2.392017   155A      2.409074   156A      2.409074  
     157A      2.478667   158A      2.478668   159A      2.490564  
     160A      2.532958   161A      2.532959   162A      2.608777  
     163A      2.616092   164A      2.672495   165A      2.672496  
     166A      2.676537   167A      2.712801   168A      2.712801  
     169A      2.826123   170A      2.880279   171A      2.880280  
     172A      2.997645   173A      3.108651   174A      3.108651  
     175A      3.186589   176A      3.228818   177A      3.228819  
     178A      3.248208   179A      3.248210   180A      3.258879  
     181A      3.301763   182A      3.333364   183A      3.333364  
     184A      3.365617   185A      3.383231   186A      3.383231  
     187A      3.407573   188A      3.446964   189A      3.509197  
     190A      3.509197   191A      3.664390   192A      3.664391  
     193A      3.751346   194A      3.774921   195A      3.774923  
     196A      3.844763   197A      3.850456   198A      3.909625  
     199A      3.909627   200A      3.981581   201A      3.981581  
     202A      3.990966   203A      4.114757   204A      4.128057  
     205A      4.128058   206A      4.221228   207A      4.221230  
     208A      4.330087   209A      4.364815   210A      4.402572  
     211A      4.402573   212A      4.425892   213A      4.425894  
     214A      4.456500   215A      4.474688   216A      4.474690  
     217A      4.576365   218A      4.622812   219A      4.622813  
     220A      4.707713   221A      4.719520   222A      4.723673  
     223A      4.723673   224A      4.742772   225A      4.754727  
     226A      4.765744   227A      4.765744   228A      4.774305  
     229A      4.835269   230A      4.857555   231A      4.857557  
     232A      5.006211   233A      5.006213   234A      5.081071  
     235A      5.112625   236A      5.112625   237A      5.199850  
     238A      5.199851   239A      5.248195   240A      5.483201  
     241A      5.483203   242A      5.717550   243A      5.717552  
     244A      5.832082   245A      5.837276   246A      5.949926  
     247A      5.949929   248A      6.085812   249A      6.085815  
     250A      6.131425   251A      6.311613   252A      6.580840  
     253A      6.580842   254A      6.675240   255A      6.755531  
     256A      6.755531   257A      6.769220   258A      6.778628  
     259A      7.118379   260A      7.125945   261A      7.125946  
     262A      7.266845   263A      7.266847   264A      7.468425  
     265A      7.468428   266A      7.501794   267A      7.686334  
     268A      7.792043   269A      7.977412   270A      7.977415  
     271A      8.186201   272A      8.229809   273A      8.229816  
     274A      8.384053   275A      8.384056   276A      8.390239  
     277A      8.496727   278A      8.496733   279A      8.509902  
     280A      8.509904   281A      8.549277   282A      8.763988  
     283A      8.763989   284A      8.800360   285A      8.837625  
     286A      8.837627   287A      8.886373   288A      8.886375  
     289A      8.937065   290A      9.129170   291A      9.229949  
     292A      9.300833   293A      9.300834   294A      9.320514  
     295A      9.320516   296A      9.506085   297A      9.506086  
     298A      9.519388   299A      9.626014   300A      9.630810  
     301A      9.700059   302A      9.700060   303A      9.799610  
     304A      9.821163   305A      9.821167   306A      9.965237  
     307A     10.104871   308A     10.104875   309A     10.229054  
     310A     10.229058   311A     10.274068   312A     10.469871  
     313A     10.718663   314A     10.718667   315A     10.818591  
     316A     10.857290   317A     10.857291   318A     11.005182  
     319A     11.056883   320A     11.056885   321A     11.579797  
     322A     11.579812   323A     11.691536   324A     11.895786  
     325A     12.128569   326A     12.246916   327A     12.246918  
     328A     12.580060   329A     12.580074   330A     12.893513  
     331A     13.200847   332A     13.200857   333A     13.396889  
     334A     14.011555   335A     14.521062   336A     14.521071  
     337A     14.711148   338A     14.764331   339A     14.764338  
     340A     16.111636   341A     16.111648   342A     16.392580  
     343A     18.886524   344A     20.607919   345A     21.877965  
     346A     21.878003   347A     26.687270   348A     97.919180  

    Final Occupation by Irrep:
              A 
    DOCC [     9 ]
    NA   [     9 ]
    NB   [     9 ]

  @DF-RHF Final Energy:  -460.10803073330555

   => Energetics <=

    Nuclear Repulsion Energy =              6.6967004737335785
    One-Electron Energy =                -649.1663628808512385
    Two-Electron Energy =                 182.3616316738120702
    Total Energy =                       -460.1080307333055543

Computation Completed


Properties will be evaluated at   0.000000,   0.000000,   0.000000 [a0]

Properties computed using the SCF density matrix


 Multipole Moments:

 ------------------------------------------------------------------------------------
     Multipole            Electronic (a.u.)      Nuclear  (a.u.)        Total (a.u.)
 ------------------------------------------------------------------------------------

 L = 1.  Multiply by 2.5417464519 to convert [e a0] to [Debye]
 Dipole X            :          0.0000065           -0.0000065            0.0000000
 Dipole Y            :        -30.1960967           29.6971792           -0.4989175
 Dipole Z            :          0.0000000            0.0000000            0.0000000
 Magnitude           :                                                    0.4989175

 ------------------------------------------------------------------------------------

*** tstop() called on cmpsrv002 at Thu Sep 19 13:58:38 2024
Module time:
	user time   =      26.25 seconds =       0.44 minutes
	system time =       3.37 seconds =       0.06 minutes
	total time  =         35 seconds =       0.58 minutes
Total time:
	user time   =      54.12 seconds =       0.90 minutes
	system time =       6.78 seconds =       0.11 minutes
	total time  =         73 seconds =       1.22 minutes
   => Libint2 <=

    Primary   basis highest AM E, G, H:  6, 6, 3
    Auxiliary basis highest AM E, G, H:  7, 7, 4
    Onebody   basis highest AM E, G, H:  -, -, -
    Solid Harmonics ordering:            Gaussian

*** tstart() called on cmpsrv002
*** at Thu Sep 19 13:58:38 2024

   => Loading Basis Set <=

    Name: THIS_BASIS
    Role: ORBITAL
    Keyword: BASIS
    atoms 1, 4-6 entry H          line    40 file /home/vance/anaconda3/envs/p4env/share/psi4/basis/aug-cc-pvqz.gbs 
    atoms 2      entry CL         line  1222 file /home/vance/anaconda3/envs/p4env/share/psi4/basis/aug-cc-pvqz.gbs 
    atoms 3      entry N          line   363 file /home/vance/anaconda3/envs/p4env/share/psi4/basis/aug-cc-pvqz.gbs 


         ---------------------------------------------------------
                       SAPT(DFT): delta HF Monomer B               
         ---------------------------------------------------------
                                   SCF
               by Justin Turney, Rob Parrish, Andy Simmonett
                          and Daniel G. A. Smith
                              RHF Reference
                        4 Threads,   7629 MiB Core
         ---------------------------------------------------------

  ==> Geometry <==

    Molecular point group: c1
    Full point group: Cs

    Geometry (in Angstrom), charge = 0, multiplicity = 1:

       Center              X                  Y                   Z               Mass       
    ------------   -----------------  -----------------  -----------------  -----------------
      Gh(H)          -0.000000190144    -0.395659973467     0.000000000000     1.007825032230
      Gh(CL)         -0.000000190144     0.947690026533     0.000000000000    34.968852682000
         N           -0.000000190144    -1.859179973467     0.000000000000    14.003074004430
         H           -0.473180190144    -2.218189973467     0.819580000000     1.007825032230
         H           -0.473180190144    -2.218189973467    -0.819580000000     1.007825032230
         H            0.946369809856    -2.218189973467     0.000000000000     1.007825032230

  Running in c1 symmetry.

  Rotational constants: A =      6.22544  B =      0.17524  C =      0.17524 [cm^-1]
  Rotational constants: A = 186633.95025  B =   5253.59848  C =   5253.59804 [MHz]
  Nuclear repulsion =   11.947542838505763

  Charge       = 0
  Multiplicity = 1
  Electrons    = 10
  Nalpha       = 5
  Nbeta        = 5

  ==> Algorithm <==

  SCF Algorithm Type is DF.
  DIIS enabled.
  MOM disabled.
  Fractional occupation disabled.
  Guess Type is SAD.
  Energy threshold   = 1.00e-08
  Density threshold  = 1.00e-08
  Integral threshold = 1.00e-12

  ==> Primary Basis <==

  Basis Set: THIS_BASIS
    Blend: AUG-CC-PVQZ
    Number of shells: 98
    Number of basis functions: 348
    Number of Cartesian functions: 434
    Spherical Harmonics?: true
    Max angular momentum: 4

   => Loading Basis Set <=

    Name: (THIS_BASIS AUX)
    Role: JKFIT
    Keyword: DF_BASIS_SCF
    atoms 1, 4-6 entry H          line    70 file /home/vance/anaconda3/envs/p4env/share/psi4/basis/aug-cc-pvqz-jkfit.gbs 
    atoms 2      entry CL         line   904 file /home/vance/anaconda3/envs/p4env/share/psi4/basis/aug-cc-pvqz-jkfit.gbs 
    atoms 3      entry N          line   248 file /home/vance/anaconda3/envs/p4env/share/psi4/basis/aug-cc-pvqz-jkfit.gbs 

  ==> Integral Setup <==

  ==> DiskDFJK: Density-Fitted J/K Matrices <==

    J tasked:                  Yes
    K tasked:                  Yes
    wK tasked:                  No
    OpenMP threads:              4
    Integrals threads:           4
    Memory [MiB]:             5722
    Algorithm:                Core
    Integral Cache:           SAVE
    Schwarz Cutoff:          1E-12
    Fitting Condition:       1E-10

   => Auxiliary Basis Set <=

  Basis Set: (THIS_BASIS AUX)
    Blend: AUG-CC-PVQZ-JKFIT
    Number of shells: 152
    Number of basis functions: 630
    Number of Cartesian functions: 849
    Spherical Harmonics?: true
    Max angular momentum: 5

  Minimum eigenvalue in the overlap matrix is 7.3171396103E-06.
  Reciprocal condition number of the overlap matrix is 5.9269308122E-07.
    Using symmetric orthogonalization.

  ==> Pre-Iterations <==

  SCF Guess: Superposition of Atomic Densities via on-the-fly atomic UHF (no occupation information).

   -------------------------
    Irrep   Nso     Nmo    
   -------------------------
     A        348     348 
   -------------------------
    Total     348     348
   -------------------------

  ==> Iterations <==

                           Total Energy        Delta E     RMS |[F,P]|

   @DF-RHF iter SAD:   -55.64205538040766   -5.56421e+01   0.00000e+00 
   @DF-RHF iter   1:   -56.12628813065457   -4.84233e-01   1.34289e-03 ADIIS/DIIS
   @DF-RHF iter   2:   -56.19509044028747   -6.88023e-02   7.78623e-04 ADIIS/DIIS
   @DF-RHF iter   3:   -56.22333506129589   -2.82446e-02   7.07564e-05 DIIS
   @DF-RHF iter   4:   -56.22397188382605   -6.36823e-04   1.32174e-05 DIIS
   @DF-RHF iter   5:   -56.22399308635589   -2.12025e-05   2.45642e-06 DIIS
   @DF-RHF iter   6:   -56.22399432868760   -1.24233e-06   6.42003e-07 DIIS
   @DF-RHF iter   7:   -56.22399441373568   -8.50481e-08   1.41682e-07 DIIS
   @DF-RHF iter   8:   -56.22399441807379   -4.33811e-09   2.10329e-08 DIIS
   @DF-RHF iter   9:   -56.22399441816877   -9.49782e-11   5.62980e-09 DIIS
  Energy and wave function converged.


  ==> Post-Iterations <==

    Orbital Energies [Eh]
    ---------------------

    Doubly Occupied:                                                      

       1A    -15.539200     2A     -1.139717     3A     -0.630907  
       4A     -0.630905     5A     -0.425447  

    Virtual:                                                              

       6A      0.024975     7A      0.042791     8A      0.043310  
       9A      0.043310    10A      0.096623    11A      0.096623  
      12A      0.100598    13A      0.117332    14A      0.137805  
      15A      0.137805    16A      0.139001    17A      0.154298  
      18A      0.181433    19A      0.181433    20A      0.216711  
      21A      0.216711    22A      0.274776    23A      0.283127  
      24A      0.288966    25A      0.288966    26A      0.292136  
      27A      0.309222    28A      0.309222    29A      0.324947  
      30A      0.325851    31A      0.325851    32A      0.330780  
      33A      0.354310    34A      0.370296    35A      0.370297  
      36A      0.397096    37A      0.397097    38A      0.412817  
      39A      0.456176    40A      0.456176    41A      0.463997  
      42A      0.479068    43A      0.479068    44A      0.551171  
      45A      0.551171    46A      0.557382    47A      0.569887  
      48A      0.569887    49A      0.625590    50A      0.631129  
      51A      0.699035    52A      0.716257    53A      0.716257  
      54A      0.720595    55A      0.736109    56A      0.736282  
      57A      0.736282    58A      0.766884    59A      0.781690  
      60A      0.792015    61A      0.792017    62A      0.829695  
      63A      0.829696    64A      0.847437    65A      0.856719  
      66A      0.856719    67A      0.890985    68A      0.890985  
      69A      0.892559    70A      0.918852    71A      0.946251  
      72A      0.946252    73A      0.966676    74A      0.966677  
      75A      0.983205    76A      1.027136    77A      1.027137  
      78A      1.034511    79A      1.042043    80A      1.042043  
      81A      1.076455    82A      1.104006    83A      1.104007  
      84A      1.144210    85A      1.144210    86A      1.166594  
      87A      1.205373    88A      1.205373    89A      1.221639  
      90A      1.376731    91A      1.381059    92A      1.383334  
      93A      1.383334    94A      1.414628    95A      1.451671  
      96A      1.451672    97A      1.463935    98A      1.463935  
      99A      1.472697   100A      1.510156   101A      1.566478  
     102A      1.566479   103A      1.580667   104A      1.588138  
     105A      1.631399   106A      1.631400   107A      1.725583  
     108A      1.725583   109A      1.761588   110A      1.761589  
     111A      1.775724   112A      1.778882   113A      1.796826  
     114A      1.796826   115A      1.831461   116A      1.837950  
     117A      1.876537   118A      1.876539   119A      1.915447  
     120A      1.915448   121A      1.960005   122A      1.960005  
     123A      1.963021   124A      1.986512   125A      2.010707  
     126A      2.010708   127A      2.050242   128A      2.079611  
     129A      2.079611   130A      2.080760   131A      2.130371  
     132A      2.154911   133A      2.154911   134A      2.157990  
     135A      2.215036   136A      2.215037   137A      2.262848  
     138A      2.306482   139A      2.306482   140A      2.336921  
     141A      2.356732   142A      2.371303   143A      2.371303  
     144A      2.376844   145A      2.395506   146A      2.395507  
     147A      2.461255   148A      2.484524   149A      2.484524  
     150A      2.515969   151A      2.540596   152A      2.570688  
     153A      2.570688   154A      2.635170   155A      2.635171  
     156A      2.661485   157A      2.661486   158A      2.682007  
     159A      2.704610   160A      2.803358   161A      2.817631  
     162A      2.817632   163A      2.908123   164A      2.908125  
     165A      2.934912   166A      2.986278   167A      2.986280  
     168A      3.004511   169A      3.049990   170A      3.049991  
     171A      3.069866   172A      3.117609   173A      3.123605  
     174A      3.123608   175A      3.167406   176A      3.207553  
     177A      3.207554   178A      3.232351   179A      3.315463  
     180A      3.315464   181A      3.363170   182A      3.363171  
     183A      3.373212   184A      3.449526   185A      3.471135  
     186A      3.471137   187A      3.618942   188A      3.618942  
     189A      3.628506   190A      3.628507   191A      3.640991  
     192A      3.739689   193A      3.760517   194A      3.760518  
     195A      3.801234   196A      3.920921   197A      3.957350  
     198A      3.957351   199A      4.078414   200A      4.078416  
     201A      4.115535   202A      4.168904   203A      4.168908  
     204A      4.195002   205A      4.246872   206A      4.263215  
     207A      4.263215   208A      4.424171   209A      4.562896  
     210A      4.562898   211A      4.598378   212A      4.661746  
     213A      4.661747   214A      4.811291   215A      4.811295  
     216A      4.831483   217A      4.921217   218A      4.921219  
     219A      5.039525   220A      5.039526   221A      5.055421  
     222A      5.321833   223A      5.321835   224A      5.328701  
     225A      5.388145   226A      5.440372   227A      5.440372  
     228A      5.451081   229A      5.486676   230A      5.510754  
     231A      5.564635   232A      5.564637   233A      5.638639  
     234A      5.638639   235A      5.944012   236A      6.124246  
     237A      6.124246   238A      6.246660   239A      6.281410  
     240A      6.294241   241A      6.373785   242A      6.373786  
     243A      6.429207   244A      6.429207   245A      6.872093  
     246A      7.018544   247A      7.018548   248A      7.055040  
     249A      7.055043   250A      7.079628   251A      7.139157  
     252A      7.159892   253A      7.418052   254A      7.461377  
     255A      7.465497   256A      7.465501   257A      7.665114  
     258A      7.665115   259A      7.679719   260A      7.707450  
     261A      7.729349   262A      7.729351   263A      7.783609  
     264A      7.783611   265A      7.821290   266A      7.821297  
     267A      7.899158   268A      8.035449   269A      8.035456  
     270A      8.074139   271A      8.074141   272A      8.190888  
     273A      8.190890   274A      8.288151   275A      8.331363  
     276A      8.331364   277A      8.352620   278A      8.510061  
     279A      8.520976   280A      8.520976   281A      8.654066  
     282A      8.779628   283A      8.779635   284A      8.792853  
     285A      8.792853   286A      8.800683   287A      8.995015  
     288A      9.002067   289A      9.015143   290A      9.015144  
     291A      9.099432   292A      9.105922   293A      9.105924  
     294A      9.111277   295A      9.235783   296A      9.352204  
     297A      9.352207   298A      9.391866   299A      9.391866  
     300A      9.510686   301A      9.510688   302A      9.615682  
     303A      9.615683   304A      9.734772   305A      9.766127  
     306A      9.795519   307A      9.795521   308A      9.942359  
     309A      9.942365   310A      9.943815   311A     10.109292  
     312A     10.176138   313A     10.176140   314A     10.363920  
     315A     10.363922   316A     10.379631   317A     10.450977  
     318A     10.450980   319A     10.598307   320A     10.607754  
     321A     10.607757   322A     10.894903   323A     10.940813  
     324A     11.060113   325A     11.060117   326A     11.111654  
     327A     11.111659   328A     11.262721   329A     11.996781  
     330A     12.225449   331A     12.225457   332A     12.460089  
     333A     12.573028   334A     12.573043   335A     13.074283  
     336A     13.118198   337A     13.223997   338A     13.224007  
     339A     13.670125   340A     15.142596   341A     15.142608  
     342A     15.441240   343A     31.141665   344A     31.141665  
     345A     31.443275   346A     37.942559   347A     43.388174  
     348A    160.461059  

    Final Occupation by Irrep:
              A 
    DOCC [     5 ]
    NA   [     5 ]
    NB   [     5 ]

  @DF-RHF Final Energy:   -56.22399441816877

   => Energetics <=

    Nuclear Repulsion Energy =             11.9475428385057629
    One-Electron Energy =                 -99.6107216687822756
    Two-Electron Energy =                  31.4391844121077391
    Total Energy =                        -56.2239944181687719

Computation Completed


Properties will be evaluated at   0.000000,   0.000000,   0.000000 [a0]

Properties computed using the SCF density matrix


 Multipole Moments:

 ------------------------------------------------------------------------------------
     Multipole            Electronic (a.u.)      Nuclear  (a.u.)        Total (a.u.)
 ------------------------------------------------------------------------------------

 L = 1.  Multiply by 2.5417464519 to convert [e a0] to [Debye]
 Dipole X            :         -0.0000127            0.0000153            0.0000026
 Dipole Y            :         36.5623000          -37.1687014           -0.6064015
 Dipole Z            :          0.0000000            0.0000000            0.0000000
 Magnitude           :                                                    0.6064015

 ------------------------------------------------------------------------------------

*** tstop() called on cmpsrv002 at Thu Sep 19 13:59:34 2024
Module time:
	user time   =      31.45 seconds =       0.52 minutes
	system time =       3.58 seconds =       0.06 minutes
	total time  =         56 seconds =       0.93 minutes
Total time:
	user time   =      85.58 seconds =       1.43 minutes
	system time =      10.36 seconds =       0.17 minutes
	total time  =        129 seconds =       2.15 minutes

         ---------------------------------------------------------
                        SAPT(DFT): delta HF Segment                

                   by Daniel G. A. Smith and Rob Parrish           
         ---------------------------------------------------------


  ==> Preparing SAPT Data Cache <== 

  ==> DiskDFJK: Density-Fitted J/K Matrices <==

    J tasked:                  Yes
    K tasked:                  Yes
    wK tasked:                  No
    OpenMP threads:              4
    Integrals threads:           4
    Memory [MiB]:             5722
    Algorithm:                Core
    Integral Cache:           SAVE
    Schwarz Cutoff:          1E-12
    Fitting Condition:       1E-10

   => Auxiliary Basis Set <=

  Basis Set: (THIS_BASIS AUX)
    Blend: AUG-CC-PVQZ-JKFIT
    Number of shells: 152
    Number of basis functions: 630
    Number of Cartesian functions: 849
    Spherical Harmonics?: true
    Max angular momentum: 5


  ==> E10 Electostatics <== 

    Elst10,r                        -57.77394376 [mEh]

  ==> E10 Exchange <== 

    Exch10(S^2)                      92.75112302 [mEh]
    Exch10                           99.10051249 [mEh]

  ==> E20 Induction <== 

   => Uncoupled Induction <= 

    Ind20,u (A<-B)                  -16.13168558 [mEh]
    Ind20,u (A->B)                  -29.22870866 [mEh]
    Ind20,u                         -45.36039423 [mEh]
    Exch-Ind20,u (A<-B)              11.76181101 [mEh]
    Exch-Ind20,u (A->B)              13.73032206 [mEh]
    Exch-Ind20,u                     25.49213307 [mEh]
    Exch-Ind20,u (A<-B) (S^inf)      13.61936024 [mEh]
    Exch-Ind20,u (A->B) (S^inf)      16.28999496 [mEh]
    Exch-Ind20,u (S^inf)             29.90935521 [mEh]

   => Coupled Induction <= 

   ---------------------------------------------------
              SAPT Coupled Induction Solver           
   ---------------------------------------------------
    Maxiter             =          20
    Convergence         =   1.000E-06
   ---------------------------------------------------
     Iter       (A<-B)           (B->A)      Time [s]
   ---------------------------------------------------
    Guess    1.181891e-01     1.583255e-01          6
        1    3.297826e-02     5.232987e-02         13
        2    5.068619e-03     1.422005e-02         20
        3    1.522796e-03     3.710408e-03         27
        4    4.457431e-04     6.936338e-04         34
        5    7.481834e-05     1.230787e-04         41
        6    1.388833e-05     1.825893e-05         49
        7    1.681153e-06     2.793159e-06         55
        8    2.131956e-07*    7.132940e-07*        60
   ---------------------------------------------------

    Ind20,r (A<-B)                  -18.90424414 [mEh]
    Ind20,r (A->B)                  -36.88297837 [mEh]
    Ind20,r                         -55.78722252 [mEh]
    Exch-Ind20,r (A<-B)              14.30506865 [mEh]
    Exch-Ind20,r (A->B)              18.83990019 [mEh]
    Exch-Ind20,r                     33.14496884 [mEh]
    Exch-Ind20,r (A<-B) (S^inf)      16.62847547 [mEh]
    Exch-Ind20,r (A->B) (S^inf)      22.47919597 [mEh]
    Exch-Ind20,r (S^inf)             39.10767144 [mEh]

   Partial SAPT(HF) Results, to compute Delta HF (dHF)
  ---------------------------------------------------------------------------------------------------------
    Electrostatics                  -57.77394376 [mEh]    -36.25369704 [kcal/mol]   -151.68546843 [kJ/mol]
      Elst10,r                      -57.77394376 [mEh]    -36.25369704 [kcal/mol]   -151.68546843 [kJ/mol]

    Exchange                         99.10051249 [mEh]     62.18651045 [kcal/mol]    260.18835971 [kJ/mol]
      Exch10                         99.10051249 [mEh]     62.18651045 [kcal/mol]    260.18835971 [kJ/mol]
      Exch10(S^2)                    92.75112302 [mEh]     58.20220840 [kcal/mol]    243.51803994 [kJ/mol]

    Induction (no dHF)              -22.64225368 [mEh]    -14.20822869 [kcal/mol]    -59.44722885 [kJ/mol]
      Ind20,r                       -55.78722252 [mEh]    -35.00701064 [kcal/mol]   -146.46933254 [kJ/mol]
      Exch-Ind20,r                   33.14496884 [mEh]     20.79878195 [kcal/mol]     87.02210369 [kJ/mol]
      Induction (A<-B) (no dHF)      -4.59917550 [mEh]     -2.88602619 [kcal/mol]    -12.07513360 [kJ/mol]
      Induction (A->B) (no dHF)     -18.04307819 [mEh]    -11.32220250 [kcal/mol]    -47.37209525 [kJ/mol]

    Subtotal SAPT(HF)                18.68431506 [mEh]     11.72458471 [kcal/mol]     49.05566242 [kJ/mol]
    Total HF                         -3.40529240 [mEh]     -2.13685324 [kcal/mol]     -8.94059398 [kJ/mol]
    Delta HF                        -22.08960746 [mEh]    -13.86143795 [kcal/mol]    -57.99625640 [kJ/mol]
  ---------------------------------------------------------------------------------------------------------
   Partial SAPT(HF) Results, alternate SAPT0-like display
  ---------------------------------------------------------------------------------------------------------
    Induction                       -44.73186114 [mEh]    -28.06966665 [kcal/mol]   -117.44348525 [kJ/mol]
      Ind20,r                       -55.78722252 [mEh]    -35.00701064 [kcal/mol]   -146.46933254 [kJ/mol]
      Exch-Ind20,r                   33.14496884 [mEh]     20.79878195 [kcal/mol]     87.02210369 [kJ/mol]
      delta HF,r (2)                -22.08960746 [mEh]    -13.86143795 [kcal/mol]    -57.99625640 [kJ/mol]
      Induction (A<-B)               -9.08609551 [mEh]     -5.70161102 [kcal/mol]    -23.85554049 [kJ/mol]
      Induction (A->B)              -35.64576563 [mEh]    -22.36805563 [kcal/mol]    -93.58794476 [kJ/mol]
  ---------------------------------------------------------------------------------------------------------
   => Libint2 <=

    Primary   basis highest AM E, G, H:  6, 6, 3
    Auxiliary basis highest AM E, G, H:  7, 7, 4
    Onebody   basis highest AM E, G, H:  -, -, -
    Solid Harmonics ordering:            Gaussian

*** tstart() called on cmpsrv002
*** at Thu Sep 19 14:01:25 2024

   => Loading Basis Set <=

    Name: THIS_BASIS
    Role: ORBITAL
    Keyword: BASIS
    atoms 1, 4-6 entry H          line    40 file /home/vance/anaconda3/envs/p4env/share/psi4/basis/aug-cc-pvqz.gbs 
    atoms 2      entry CL         line  1222 file /home/vance/anaconda3/envs/p4env/share/psi4/basis/aug-cc-pvqz.gbs 
    atoms 3      entry N          line   363 file /home/vance/anaconda3/envs/p4env/share/psi4/basis/aug-cc-pvqz.gbs 


         ---------------------------------------------------------
                          SAPT(DFT): DFT Monomer A                 
         ---------------------------------------------------------
                                   SCF
               by Justin Turney, Rob Parrish, Andy Simmonett
                          and Daniel G. A. Smith
                              RKS Reference
                        4 Threads,   7629 MiB Core
         ---------------------------------------------------------

  ==> Geometry <==

    Molecular point group: c1
    Full point group: Cs

    Geometry (in Angstrom), charge = 0, multiplicity = 1:

       Center              X                  Y                   Z               Mass       
    ------------   -----------------  -----------------  -----------------  -----------------
         H           -0.000000190144    -0.395659973467     0.000000000000     1.007825032230
         CL          -0.000000190144     0.947690026533     0.000000000000    34.968852682000
      Gh(N)          -0.000000190144    -1.859179973467     0.000000000000    14.003074004430
      Gh(H)          -0.473180190144    -2.218189973467     0.819580000000     1.007825032230
      Gh(H)          -0.473180190144    -2.218189973467    -0.819580000000     1.007825032230
      Gh(H)           0.946369809856    -2.218189973467     0.000000000000     1.007825032230

  Running in c1 symmetry.

  Rotational constants: A =      6.22544  B =      0.17524  C =      0.17524 [cm^-1]
  Rotational constants: A = 186633.95025  B =   5253.59848  C =   5253.59804 [MHz]
  Nuclear repulsion =    6.696700473733578

  Charge       = 0
  Multiplicity = 1
  Electrons    = 18
  Nalpha       = 9
  Nbeta        = 9

  ==> Algorithm <==

  SCF Algorithm Type is DF.
  DIIS enabled.
  MOM disabled.
  Fractional occupation disabled.
  Guess Type is SAD.
  Energy threshold   = 1.00e-08
  Density threshold  = 1.00e-08
  Integral threshold = 1.00e-12

  ==> Primary Basis <==

  Basis Set: THIS_BASIS
    Blend: AUG-CC-PVQZ
    Number of shells: 98
    Number of basis functions: 348
    Number of Cartesian functions: 434
    Spherical Harmonics?: true
    Max angular momentum: 4

  ==> DFT Potential <==

   => LibXC <=

    Version 6.2.2
    S. Lehtola, C. Steigemann, M. J.T. Oliveira, and M. A.L. Marques.,  SoftwareX 7, 15 (2018) (10.1016/j.softx.2017.11.002)

   => Composite Functional: PBE0 <= 

    PBE0 Hyb-GGA Exchange-Correlation Functional

    C. Adamo and V. Barone.,  J. Chem. Phys. 110, 6158 (1999) (10.1063/1.478522)
    M. Ernzerhof and G. E. Scuseria.,  J. Chem. Phys. 110, 5029 (1999) (10.1063/1.478401)

    Deriv               =              1
    GGA                 =           TRUE
    Meta                =          FALSE

    Exchange Hybrid     =           TRUE
    MP2 Hybrid          =          FALSE

   => Exchange Functionals <=

    0.7500   Perdew, Burke & Ernzerhof

   => Exact (HF) Exchange <=

    0.2500               HF 

   => Correlation Functionals <=

    1.0000   Perdew, Burke & Ernzerhof

   => LibXC Density Thresholds  <==

    XC_HYB_GGA_XC_PBEH:  1.00E-15 

   => Asymptotic Correction <=

    X Functional        =    XC_GGA_X_LB
    C Functional        =   XC_LDA_C_VWN
    Bulk Shift          =       0.116251
    GRAC Alpha          =       0.500000
    GRAC Beta           =      40.000000

   => Molecular Quadrature <=

    Radial Scheme          =       TREUTLER
    Pruning Scheme         =           NONE
    Nuclear Scheme         =       TREUTLER

    Blocking Scheme        =         OCTREE
    BS radius alpha        =              1
    Pruning alpha          =              1
    Radial Points          =             75
    Spherical Points       =            302
    Total Points           =         131651
    Total Blocks           =           1048
    Max Points             =            256
    Max Functions          =            348
    Weights Tolerance      =       1.00E-15

   => Loading Basis Set <=

    Name: (THIS_BASIS AUX)
    Role: JKFIT
    Keyword: DF_BASIS_SCF
    atoms 1, 4-6 entry H          line    70 file /home/vance/anaconda3/envs/p4env/share/psi4/basis/aug-cc-pvqz-jkfit.gbs 
    atoms 2      entry CL         line   904 file /home/vance/anaconda3/envs/p4env/share/psi4/basis/aug-cc-pvqz-jkfit.gbs 
    atoms 3      entry N          line   248 file /home/vance/anaconda3/envs/p4env/share/psi4/basis/aug-cc-pvqz-jkfit.gbs 

  ==> Integral Setup <==

  ==> DiskDFJK: Density-Fitted J/K Matrices <==

    J tasked:                  Yes
    K tasked:                  Yes
    wK tasked:                  No
    OpenMP threads:              4
    Integrals threads:           4
    Memory [MiB]:             4519
    Algorithm:                Core
    Integral Cache:           SAVE
    Schwarz Cutoff:          1E-12
    Fitting Condition:       1E-10

   => Auxiliary Basis Set <=

  Basis Set: (THIS_BASIS AUX)
    Blend: AUG-CC-PVQZ-JKFIT
    Number of shells: 152
    Number of basis functions: 630
    Number of Cartesian functions: 849
    Spherical Harmonics?: true
    Max angular momentum: 5

  Cached 100.0% of DFT collocation blocks in 1.174 [GiB].

  Minimum eigenvalue in the overlap matrix is 7.3171396103E-06.
  Reciprocal condition number of the overlap matrix is 5.9269308122E-07.
    Using symmetric orthogonalization.

  ==> Pre-Iterations <==

  SCF Guess: Superposition of Atomic Densities via on-the-fly atomic UHF (no occupation information).

   -------------------------
    Irrep   Nso     Nmo    
   -------------------------
     A        348     348 
   -------------------------
    Total     348     348
   -------------------------

  ==> Iterations <==

                           Total Energy        Delta E     RMS |[F,P]|

   @DF-RKS iter SAD:  -460.52671626562994   -4.60527e+02   0.00000e+00 
   @DF-RKS iter   1:  -460.65071179080127   -1.23996e-01   7.18806e-04 ADIIS/DIIS
   @DF-RKS iter   2:  -460.65476965122951   -4.05786e-03   6.34121e-04 ADIIS/DIIS
   @DF-RKS iter   3:  -460.67484692951496   -2.00773e-02   5.20270e-05 DIIS
   @DF-RKS iter   4:  -460.67502803211920   -1.81103e-04   8.04691e-06 DIIS
   @DF-RKS iter   5:  -460.67503325821434   -5.22610e-06   1.21710e-06 DIIS
   @DF-RKS iter   6:  -460.67503293248677    3.25728e-07   4.36248e-08 DIIS
   @DF-RKS iter   7:  -460.67503294069201   -8.20523e-09   3.10375e-09 DIIS
  Energy and wave function converged.


  ==> Post-Iterations <==

   Electrons on quadrature grid:
      Ntotal   =   17.9999977943 ; deviation = -2.206e-06 

    Orbital Energies [Eh]
    ---------------------

    Doubly Occupied:                                                      

       1A   -101.863019     2A     -9.665165     3A     -7.400755  
       4A     -7.392297     5A     -7.392297     6A     -0.976105  
       7A     -0.595507     8A     -0.463144     9A     -0.463144  

    Virtual:                                                              

      10A     -0.133216    11A     -0.063533    12A     -0.046529  
      13A     -0.042050    14A     -0.042017    15A     -0.006074  
      16A     -0.005533    17A     -0.005515    18A      0.019614  
      19A      0.019734    20A      0.035195    21A      0.045846  
      22A      0.055507    23A      0.055523    24A      0.076849  
      25A      0.098758    26A      0.098798    27A      0.119598  
      28A      0.119599    29A      0.143912    30A      0.160261  
      31A      0.160290    32A      0.183528    33A      0.185855  
      34A      0.185898    35A      0.195599    36A      0.197079  
      37A      0.216361    38A      0.216367    39A      0.248839  
      40A      0.265751    41A      0.297238    42A      0.297240  
      43A      0.312460    44A      0.316079    45A      0.316091  
      46A      0.325557    47A      0.325574    48A      0.359345  
      49A      0.392003    50A      0.392006    51A      0.397917  
      52A      0.450159    53A      0.450206    54A      0.469656  
      55A      0.469665    56A      0.472701    57A      0.502727  
      58A      0.502738    59A      0.514118    60A      0.514161  
      61A      0.514603    62A      0.560477    63A      0.577739  
      64A      0.600657    65A      0.614917    66A      0.630244  
      67A      0.630245    68A      0.643316    69A      0.643320  
      70A      0.657735    71A      0.671411    72A      0.708292  
      73A      0.740043    74A      0.740054    75A      0.773470  
      76A      0.781189    77A      0.781198    78A      0.794733  
      79A      0.794739    80A      0.815644    81A      0.815666  
      82A      0.834865    83A      0.841502    84A      0.841532  
      85A      0.884702    86A      0.931731    87A      0.934560  
      88A      0.934565    89A      0.968229    90A      0.968247  
      91A      0.993125    92A      1.070961    93A      1.071026  
      94A      1.074673    95A      1.111838    96A      1.111857  
      97A      1.161254    98A      1.192484    99A      1.192490  
     100A      1.239567   101A      1.262446   102A      1.262457  
     103A      1.318638   104A      1.336326   105A      1.336341  
     106A      1.355616   107A      1.395855   108A      1.418347  
     109A      1.418347   110A      1.454589   111A      1.493601  
     112A      1.493610   113A      1.529066   114A      1.529070  
     115A      1.534517   116A      1.546152   117A      1.547551  
     118A      1.558659   119A      1.558660   120A      1.635834  
     121A      1.635839   122A      1.653200   123A      1.687435  
     124A      1.695658   125A      1.695658   126A      1.703846  
     127A      1.735401   128A      1.735422   129A      1.752724  
     130A      1.752728   131A      1.763949   132A      1.784407  
     133A      1.788711   134A      1.836724   135A      1.836742  
     136A      1.878134   137A      1.878139   138A      1.886054  
     139A      1.929695   140A      1.929708   141A      1.945348  
     142A      1.945349   143A      1.948395   144A      1.957441  
     145A      1.982621   146A      1.982632   147A      1.986536  
     148A      2.052012   149A      2.059326   150A      2.059328  
     151A      2.124388   152A      2.153409   153A      2.153430  
     154A      2.184553   155A      2.184558   156A      2.198293  
     157A      2.198311   158A      2.209029   159A      2.279485  
     160A      2.329389   161A      2.329399   162A      2.345614  
     163A      2.432691   164A      2.458952   165A      2.458958  
     166A      2.478173   167A      2.513112   168A      2.513124  
     169A      2.573912   170A      2.597092   171A      2.597134  
     172A      2.765610   173A      2.874319   174A      2.874325  
     175A      3.012213   176A      3.012228   177A      3.015351  
     178A      3.041478   179A      3.041486   180A      3.073531  
     181A      3.107231   182A      3.117851   183A      3.117857  
     184A      3.167877   185A      3.190361   186A      3.190370  
     187A      3.218367   188A      3.251967   189A      3.355112  
     190A      3.355122   191A      3.410387   192A      3.414124  
     193A      3.414131   194A      3.536339   195A      3.536346  
     196A      3.564296   197A      3.703581   198A      3.725045  
     199A      3.725047   200A      3.764168   201A      3.824259  
     202A      3.824277   203A      3.863214   204A      3.863218  
     205A      3.919559   206A      3.919561   207A      3.939236  
     208A      4.080004   209A      4.080011   210A      4.108053  
     211A      4.177949   212A      4.190241   213A      4.191947  
     214A      4.191948   215A      4.227213   216A      4.228336  
     217A      4.239642   218A      4.239655   219A      4.251940  
     220A      4.251941   221A      4.260700   222A      4.260701  
     223A      4.268188   224A      4.310531   225A      4.328650  
     226A      4.388544   227A      4.431463   228A      4.431464  
     229A      4.515942   230A      4.515942   231A      4.523537  
     232A      4.629745   233A      4.629751   234A      4.739308  
     235A      4.739316   236A      4.745352   237A      4.850900  
     238A      4.850907   239A      5.034994   240A      5.234443  
     241A      5.234444   242A      5.453996   243A      5.454000  
     244A      5.588624   245A      5.666606   246A      5.754607  
     247A      5.754614   248A      5.817527   249A      5.858327  
     250A      5.858331   251A      6.043756   252A      6.212181  
     253A      6.212189   254A      6.363868   255A      6.396204  
     256A      6.426504   257A      6.426508   258A      6.458580  
     259A      6.818602   260A      6.818605   261A      6.972680  
     262A      7.043072   263A      7.095195   264A      7.095198  
     265A      7.231342   266A      7.231345   267A      7.525840  
     268A      7.645314   269A      7.647358   270A      7.647362  
     271A      8.045600   272A      8.063101   273A      8.063114  
     274A      8.142445   275A      8.209151   276A      8.209165  
     277A      8.222049   278A      8.222067   279A      8.327725  
     280A      8.327738   281A      8.380242   282A      8.446661  
     283A      8.461912   284A      8.461931   285A      8.542210  
     286A      8.542221   287A      8.658003   288A      8.658013  
     289A      8.777345   290A      8.922362   291A      9.026960  
     292A      9.026962   293A      9.055618   294A      9.151865  
     295A      9.151872   296A      9.243432   297A      9.243438  
     298A      9.333703   299A      9.361016   300A      9.447331  
     301A      9.447348   302A      9.482264   303A      9.589323  
     304A      9.649010   305A      9.649015   306A      9.705246  
     307A      9.949461   308A      9.949465   309A      9.959081  
     310A     10.060869   311A     10.060876   312A     10.324603  
     313A     10.540788   314A     10.557818   315A     10.557829  
     316A     10.677355   317A     10.677357   318A     10.836542  
     319A     10.891478   320A     10.891480   321A     11.361420  
     322A     11.392069   323A     11.392082   324A     11.619305  
     325A     11.947370   326A     12.062365   327A     12.062365  
     328A     12.411323   329A     12.411336   330A     12.669522  
     331A     13.034159   332A     13.034166   333A     13.234102  
     334A     13.851276   335A     14.361121   336A     14.361130  
     337A     14.509270   338A     14.580837   339A     14.580846  
     340A     15.930373   341A     15.930383   342A     16.225264  
     343A     18.697815   344A     20.417016   345A     21.696506  
     346A     21.696543   347A     25.853269   348A     97.725536  

    Final Occupation by Irrep:
              A 
    DOCC [     9 ]
    NA   [     9 ]
    NB   [     9 ]

  @DF-RKS Final Energy:  -460.67503294069201

   => Energetics <=

    Nuclear Repulsion Energy =              6.6967004737335785
    One-Electron Energy =                -649.2514913293550762
    Two-Electron Energy =                 203.3315423994184243
    DFT Exchange-Correlation Energy =     -21.4517844844889503
    Empirical Dispersion Energy =           0.0000000000000000
    VV10 Nonlocal Energy =                  0.0000000000000000
    Total Energy =                       -460.6750329406920059

Computation Completed


Properties will be evaluated at   0.000000,   0.000000,   0.000000 [a0]

Properties computed using the SCF density matrix


 Multipole Moments:

 ------------------------------------------------------------------------------------
     Multipole            Electronic (a.u.)      Nuclear  (a.u.)        Total (a.u.)
 ------------------------------------------------------------------------------------

 L = 1.  Multiply by 2.5417464519 to convert [e a0] to [Debye]
 Dipole X            :          0.0000037           -0.0000065           -0.0000028
 Dipole Y            :        -30.1671313           29.6971792           -0.4699520
 Dipole Z            :          0.0000000            0.0000000            0.0000000
 Magnitude           :                                                    0.4699520

 ------------------------------------------------------------------------------------

*** tstop() called on cmpsrv002 at Thu Sep 19 14:04:03 2024
Module time:
	user time   =     101.78 seconds =       1.70 minutes
	system time =       4.92 seconds =       0.08 minutes
	total time  =        158 seconds =       2.63 minutes
Total time:
	user time   =     297.94 seconds =       4.97 minutes
	system time =      15.96 seconds =       0.27 minutes
	total time  =        398 seconds =       6.63 minutes
   => Libint2 <=

    Primary   basis highest AM E, G, H:  6, 6, 3
    Auxiliary basis highest AM E, G, H:  7, 7, 4
    Onebody   basis highest AM E, G, H:  -, -, -
    Solid Harmonics ordering:            Gaussian

*** tstart() called on cmpsrv002
*** at Thu Sep 19 14:04:03 2024

   => Loading Basis Set <=

    Name: THIS_BASIS
    Role: ORBITAL
    Keyword: BASIS
    atoms 1, 4-6 entry H          line    40 file /home/vance/anaconda3/envs/p4env/share/psi4/basis/aug-cc-pvqz.gbs 
    atoms 2      entry CL         line  1222 file /home/vance/anaconda3/envs/p4env/share/psi4/basis/aug-cc-pvqz.gbs 
    atoms 3      entry N          line   363 file /home/vance/anaconda3/envs/p4env/share/psi4/basis/aug-cc-pvqz.gbs 


         ---------------------------------------------------------
                          SAPT(DFT): DFT Monomer B                 
         ---------------------------------------------------------
                                   SCF
               by Justin Turney, Rob Parrish, Andy Simmonett
                          and Daniel G. A. Smith
                              RKS Reference
                        4 Threads,   7629 MiB Core
         ---------------------------------------------------------

  ==> Geometry <==

    Molecular point group: c1
    Full point group: Cs

    Geometry (in Angstrom), charge = 0, multiplicity = 1:

       Center              X                  Y                   Z               Mass       
    ------------   -----------------  -----------------  -----------------  -----------------
      Gh(H)          -0.000000190144    -0.395659973467     0.000000000000     1.007825032230
      Gh(CL)         -0.000000190144     0.947690026533     0.000000000000    34.968852682000
         N           -0.000000190144    -1.859179973467     0.000000000000    14.003074004430
         H           -0.473180190144    -2.218189973467     0.819580000000     1.007825032230
         H           -0.473180190144    -2.218189973467    -0.819580000000     1.007825032230
         H            0.946369809856    -2.218189973467     0.000000000000     1.007825032230

  Running in c1 symmetry.

  Rotational constants: A =      6.22544  B =      0.17524  C =      0.17524 [cm^-1]
  Rotational constants: A = 186633.95025  B =   5253.59848  C =   5253.59804 [MHz]
  Nuclear repulsion =   11.947542838505763

  Charge       = 0
  Multiplicity = 1
  Electrons    = 10
  Nalpha       = 5
  Nbeta        = 5

  ==> Algorithm <==

  SCF Algorithm Type is DF.
  DIIS enabled.
  MOM disabled.
  Fractional occupation disabled.
  Guess Type is SAD.
  Energy threshold   = 1.00e-08
  Density threshold  = 1.00e-08
  Integral threshold = 1.00e-12

  ==> Primary Basis <==

  Basis Set: THIS_BASIS
    Blend: AUG-CC-PVQZ
    Number of shells: 98
    Number of basis functions: 348
    Number of Cartesian functions: 434
    Spherical Harmonics?: true
    Max angular momentum: 4

  ==> DFT Potential <==

   => LibXC <=

    Version 6.2.2
    S. Lehtola, C. Steigemann, M. J.T. Oliveira, and M. A.L. Marques.,  SoftwareX 7, 15 (2018) (10.1016/j.softx.2017.11.002)

   => Composite Functional: PBE0 <= 

    PBE0 Hyb-GGA Exchange-Correlation Functional

    C. Adamo and V. Barone.,  J. Chem. Phys. 110, 6158 (1999) (10.1063/1.478522)
    M. Ernzerhof and G. E. Scuseria.,  J. Chem. Phys. 110, 5029 (1999) (10.1063/1.478401)

    Deriv               =              1
    GGA                 =           TRUE
    Meta                =          FALSE

    Exchange Hybrid     =           TRUE
    MP2 Hybrid          =          FALSE

   => Exchange Functionals <=

    0.7500   Perdew, Burke & Ernzerhof

   => Exact (HF) Exchange <=

    0.2500               HF 

   => Correlation Functionals <=

    1.0000   Perdew, Burke & Ernzerhof

   => LibXC Density Thresholds  <==

    XC_HYB_GGA_XC_PBEH:  1.00E-15 

   => Asymptotic Correction <=

    X Functional        =    XC_GGA_X_LB
    C Functional        =   XC_LDA_C_VWN
    Bulk Shift          =       0.113162
    GRAC Alpha          =       0.500000
    GRAC Beta           =      40.000000

   => Molecular Quadrature <=

    Radial Scheme          =       TREUTLER
    Pruning Scheme         =           NONE
    Nuclear Scheme         =       TREUTLER

    Blocking Scheme        =         OCTREE
    BS radius alpha        =              1
    Pruning alpha          =              1
    Radial Points          =             75
    Spherical Points       =            302
    Total Points           =         131651
    Total Blocks           =           1048
    Max Points             =            256
    Max Functions          =            348
    Weights Tolerance      =       1.00E-15

   => Loading Basis Set <=

    Name: (THIS_BASIS AUX)
    Role: JKFIT
    Keyword: DF_BASIS_SCF
    atoms 1, 4-6 entry H          line    70 file /home/vance/anaconda3/envs/p4env/share/psi4/basis/aug-cc-pvqz-jkfit.gbs 
    atoms 2      entry CL         line   904 file /home/vance/anaconda3/envs/p4env/share/psi4/basis/aug-cc-pvqz-jkfit.gbs 
    atoms 3      entry N          line   248 file /home/vance/anaconda3/envs/p4env/share/psi4/basis/aug-cc-pvqz-jkfit.gbs 

  ==> Integral Setup <==

  ==> DiskDFJK: Density-Fitted J/K Matrices <==

    J tasked:                  Yes
    K tasked:                  Yes
    wK tasked:                  No
    OpenMP threads:              4
    Integrals threads:           4
    Memory [MiB]:             4519
    Algorithm:                Core
    Integral Cache:           SAVE
    Schwarz Cutoff:          1E-12
    Fitting Condition:       1E-10

   => Auxiliary Basis Set <=

  Basis Set: (THIS_BASIS AUX)
    Blend: AUG-CC-PVQZ-JKFIT
    Number of shells: 152
[...]

    Virtual:                                                              

       6A     -0.103691     7A     -0.053771     8A     -0.053770  
       9A     -0.039202    10A     -0.001753    11A      0.006488  
      12A      0.006491    13A      0.011991    14A      0.021228  
      15A      0.021234    16A      0.031933    17A      0.031933  
      18A      0.042994    19A      0.054511    20A      0.084205  
      21A      0.084210    22A      0.148281    23A      0.152208  
      24A      0.167960    25A      0.169251    26A      0.169258  
      27A      0.183441    28A      0.183449    29A      0.189196  
      30A      0.192601    31A      0.202140    32A      0.202141  
      33A      0.219351    34A      0.219354    35A      0.236784  
      36A      0.253336    37A      0.253338    38A      0.267845  
      39A      0.308314    40A      0.308317    41A      0.333033  
      42A      0.333034    43A      0.340858    44A      0.378195  
      45A      0.378203    46A      0.405258    47A      0.426281  
      48A      0.426284    49A      0.442362    50A      0.496701  
      51A      0.511117    52A      0.536890    53A      0.540678  
      54A      0.540695    55A      0.550757    56A      0.550763  
      57A      0.562181    58A      0.576292    59A      0.579824  
      60A      0.579842    61A      0.604718    62A      0.655359  
      63A      0.655383    64A      0.680296    65A      0.680305  
      66A      0.688079    67A      0.713188    68A      0.713189  
      69A      0.748416    70A      0.758608    71A      0.758617  
      72A      0.773638    73A      0.780133    74A      0.780139  
      75A      0.822312    76A      0.884976    77A      0.903772  
      78A      0.903808    79A      0.908971    80A      0.911081  
      81A      0.911093    82A      0.935159    83A      0.935163  
      84A      0.971196    85A      0.971205    86A      1.005494  
      87A      1.018826    88A      1.018851    89A      1.032427  
      90A      1.121960    91A      1.145606    92A      1.150063  
      93A      1.150081    94A      1.201984    95A      1.208131  
      96A      1.208150    97A      1.251713    98A      1.262073  
      99A      1.262074   100A      1.284504   101A      1.307066  
     102A      1.307080   103A      1.324960   104A      1.382320  
     105A      1.424546   106A      1.424577   107A      1.488560  
     108A      1.488569   109A      1.518584   110A      1.518599  
     111A      1.555124   112A      1.565761   113A      1.577587  
     114A      1.578628   115A      1.578646   116A      1.638104  
     117A      1.651109   118A      1.651112   119A      1.683575  
     120A      1.683595   121A      1.761407   122A      1.767396  
     123A      1.771559   124A      1.771587   125A      1.800595  
     126A      1.824445   127A      1.824463   128A      1.863788  
     129A      1.863790   130A      1.865555   131A      1.923563  
     132A      1.936914   133A      1.936946   134A      1.951598  
     135A      1.982222   136A      1.982227   137A      2.028207  
     138A      2.101377   139A      2.101393   140A      2.126292  
     141A      2.145230   142A      2.145252   143A      2.209436  
     144A      2.209441   145A      2.222949   146A      2.226425  
     147A      2.247726   148A      2.297915   149A      2.297928  
     150A      2.305345   151A      2.348316   152A      2.348317  
     153A      2.398306   154A      2.398308   155A      2.399299  
     156A      2.439260   157A      2.439262   158A      2.478249  
     159A      2.484918   160A      2.535881   161A      2.573828  
     162A      2.573844   163A      2.578132   164A      2.603105  
     165A      2.603122   166A      2.696683   167A      2.696694  
     168A      2.759932   169A      2.774944   170A      2.791096  
     171A      2.791103   172A      2.809771   173A      2.853938  
     174A      2.867679   175A      2.867685   176A      2.889084  
     177A      2.889089   178A      2.961378   179A      3.048560  
     180A      3.048588   181A      3.066752   182A      3.080529  
     183A      3.080536   184A      3.180767   185A      3.180775  
     186A      3.191533   187A      3.306845   188A      3.334151  
     189A      3.334172   190A      3.401466   191A      3.401484  
     192A      3.408660   193A      3.482474   194A      3.482481  
     195A      3.546927   196A      3.619188   197A      3.633012  
     198A      3.633018   199A      3.730879   200A      3.730890  
     201A      3.769235   202A      3.839435   203A      3.851508  
     204A      3.851539   205A      3.894806   206A      3.904544  
     207A      3.904549   208A      4.079722   209A      4.246673  
     210A      4.246678   211A      4.266470   212A      4.329127  
     213A      4.329128   214A      4.424100   215A      4.424117  
     216A      4.545909   217A      4.577561   218A      4.577562  
     219A      4.630601   220A      4.630610   221A      4.674668  
     222A      4.886149   223A      4.886153   224A      4.973540  
     225A      5.056465   226A      5.088308   227A      5.180394  
     228A      5.180401   229A      5.305960   230A      5.305974  
     231A      5.339787   232A      5.339961   233A      5.463407  
     234A      5.463410   235A      5.580204   236A      5.955262  
     237A      5.955263   238A      6.029575   239A      6.144002  
     240A      6.149949   241A      6.177170   242A      6.177171  
     243A      6.279969   244A      6.279977   245A      6.463014  
     246A      6.637194   247A      6.637208   248A      6.646392  
     249A      6.646399   250A      6.790235   251A      6.812735  
     252A      6.902536   253A      6.996339   254A      6.996345  
     255A      7.014813   256A      7.069828   257A      7.272679  
     258A      7.292095   259A      7.298905   260A      7.298928  
     261A      7.434585   262A      7.434593   263A      7.440816  
     264A      7.440833   265A      7.564081   266A      7.604250  
     267A      7.604257   268A      7.641201   269A      7.641221  
     270A      7.714033   271A      7.714048   272A      7.817190  
     273A      7.817198   274A      7.849212   275A      7.915958  
     276A      7.932678   277A      7.932698   278A      8.115337  
     279A      8.115339   280A      8.140161   281A      8.274039  
     282A      8.351311   283A      8.351354   284A      8.403339  
     285A      8.407244   286A      8.407252   287A      8.520800  
     288A      8.529639   289A      8.556542   290A      8.556562  
     291A      8.637373   292A      8.664426   293A      8.664430  
     294A      8.695297   295A      8.882293   296A      8.882314  
     297A      8.906998   298A      8.987263   299A      8.987263  
     300A      9.159589   301A      9.159616   302A      9.232636  
     303A      9.232653   304A      9.238181   305A      9.275477  
     306A      9.288714   307A      9.288735   308A      9.434279  
     309A      9.434283   310A      9.520435   311A      9.665555  
     312A      9.687542   313A      9.687547   314A      9.933248  
     315A      9.933258   316A      9.958613   317A     10.052901  
     318A     10.052905   319A     10.094020   320A     10.120093  
     321A     10.120094   322A     10.344549   323A     10.531780  
     324A     10.531784   325A     10.557510   326A     10.617216  
     327A     10.617224   328A     10.812795   329A     11.452187  
     330A     11.673523   331A     11.673532   332A     11.908073  
     333A     12.025098   334A     12.025117   335A     12.534847  
     336A     12.627877   337A     12.627893   338A     12.709856  
     339A     13.380435   340A     14.494850   341A     14.494861  
     342A     14.843044   343A     30.999622   344A     30.999623  
     345A     31.299564   346A     36.587646   347A     43.242261  
     348A    160.304959  

    Final Occupation by Irrep:
              A 
    DOCC [     5 ]
    NA   [     5 ]
    NB   [     5 ]

  @DF-RKS Final Energy:   -56.51978963059653

   => Energetics <=

    Nuclear Repulsion Energy =             11.9475428385057629
    One-Electron Energy =                 -99.6855382048337475
    Two-Electron Energy =                  37.2620069744258373
    DFT Exchange-Correlation Energy =      -6.0438012386943907
    Empirical Dispersion Energy =           0.0000000000000000
    VV10 Nonlocal Energy =                  0.0000000000000000
    Total Energy =                        -56.5197896305965344

Computation Completed


Properties will be evaluated at   0.000000,   0.000000,   0.000000 [a0]

Properties computed using the SCF density matrix


 Multipole Moments:

 ------------------------------------------------------------------------------------
     Multipole            Electronic (a.u.)      Nuclear  (a.u.)        Total (a.u.)
 ------------------------------------------------------------------------------------

 L = 1.  Multiply by 2.5417464519 to convert [e a0] to [Debye]
 Dipole X            :         -0.0000131            0.0000153            0.0000022
 Dipole Y            :         36.5962322          -37.1687014           -0.5724692
 Dipole Z            :          0.0000000            0.0000000            0.0000000
 Magnitude           :                                                    0.5724692

 ------------------------------------------------------------------------------------

*** tstop() called on cmpsrv002 at Thu Sep 19 14:07:25 2024
Module time:
	user time   =      91.17 seconds =       1.52 minutes
	system time =       2.55 seconds =       0.04 minutes
	total time  =        202 seconds =       3.37 minutes
Total time:
	user time   =     389.11 seconds =       6.49 minutes
	system time =      18.51 seconds =       0.31 minutes
	total time  =        600 seconds =      10.00 minutes

         ---------------------------------------------------------
               SAPT(DFT): Intermolecular Interaction Segment       

                   by Daniel G. A. Smith and Rob Parrish           
         ---------------------------------------------------------

  ==> Algorithm <==

   SAPT DFT Functional             PBE0
   Monomer A GRAC Shift        0.116251
   Monomer B GRAC Shift        0.113162
   Delta HF                        True
   JK Algorithm                      DF

  ==> Preparing SAPT Data Cache <== 

  ==> DiskDFJK: Density-Fitted J/K Matrices <==

    J tasked:                  Yes
    K tasked:                  Yes
    wK tasked:                  No
    OpenMP threads:              4
    Integrals threads:           4
    Memory [MiB]:             4519
    Algorithm:                Core
    Integral Cache:           SAVE
    Schwarz Cutoff:          1E-12
    Fitting Condition:       1E-10

   => Auxiliary Basis Set <=

  Basis Set: (THIS_BASIS AUX)
    Blend: AUG-CC-PVQZ-JKFIT
    Number of shells: 152
    Number of basis functions: 630
    Number of Cartesian functions: 849
    Spherical Harmonics?: true
    Max angular momentum: 5


  ==> E10 Electostatics <== 

    Elst10,r                        -55.74238826 [mEh]

  ==> E10 Exchange <== 

    Exch10(S^2)                      93.38667346 [mEh]
    Exch10                           99.76229930 [mEh]

  ==> E20 Induction <== 

   => Uncoupled Induction <= 

    Ind20,u (A<-B)                  -19.64209789 [mEh]
    Ind20,u (A->B)                  -38.00200602 [mEh]
    Ind20,u                         -57.64410391 [mEh]
    Exch-Ind20,u (A<-B)              14.78997495 [mEh]
    Exch-Ind20,u (A->B)              19.22397707 [mEh]
    Exch-Ind20,u                     34.01395202 [mEh]
    Exch-Ind20,u (A<-B) (S^inf)      17.14478732 [mEh]
    Exch-Ind20,u (A->B) (S^inf)      22.75972265 [mEh]
    Exch-Ind20,u (S^inf)             39.90450996 [mEh]

   => Coupled Induction <= 

   ---------------------------------------------------
              SAPT Coupled Induction Solver           
   ---------------------------------------------------
    Maxiter             =          20
    Convergence         =   1.000E-06
   ---------------------------------------------------
     Iter       (A<-B)           (B->A)      Time [s]
   ---------------------------------------------------
    Guess    1.242544e-01     1.530985e-01          4
        1    2.815701e-02     5.659576e-02          8
        2    8.837434e-03     1.800962e-02         11
        3    1.391531e-03     1.672480e-03         15
        4    1.298757e-04     1.287151e-04         18
        5    2.147993e-05     8.439569e-06         21
        6    1.986654e-06     8.053159e-07*        24
        7    6.469696e-08*    8.053159e-07*        25
   ---------------------------------------------------

    Ind20,r (A<-B)                  -20.36936419 [mEh]
    Ind20,r (A->B)                  -39.97109103 [mEh]
    Ind20,r                         -60.34045523 [mEh]
    Exch-Ind20,r (A<-B)              15.87372262 [mEh]
    Exch-Ind20,r (A->B)              21.61228259 [mEh]
    Exch-Ind20,r                     37.48600521 [mEh]
    Exch-Ind20,r (A<-B) (S^inf)      18.41749987 [mEh]
    Exch-Ind20,r (A->B) (S^inf)      25.61008618 [mEh]
    Exch-Ind20,r (S^inf)             44.02758605 [mEh]
   => Loading Basis Set <=

    Name: (THIS_BASIS AUX)
    Role: RIFIT
    Keyword: DF_BASIS_MP2
    atoms 1, 4-6 entry H          line    30 file /home/vance/anaconda3/envs/p4env/share/psi4/basis/aug-cc-pvqz-ri.gbs 
    atoms 2      entry CL         line   914 file /home/vance/anaconda3/envs/p4env/share/psi4/basis/aug-cc-pvqz-ri.gbs 
    atoms 3      entry N          line   258 file /home/vance/anaconda3/envs/p4env/share/psi4/basis/aug-cc-pvqz-ri.gbs 



  ==> E20 Dispersion (CHF FDDS) <== 

   Legendre Points:          10
   Lambda Shift:          0.300
   Fxc Kernal:             ALDA
   (P|Fxc|Q) Thresh:  1.000e-06
  DFHelper Memory: AOs need 0.646 GiB; user supplied 5.960 GiB. 
  Using in-core AOs.

  ==> DFHelper <==
    NBF:                             348
    NAux:                            682
    Schwarz Cutoff:                1E-12
    Mask sparsity (%):                 1
    DFH Avail. Memory [GiB]:       5.960
    OpenMP threads:                    4
    Algorithm:                    DIRECT
    AO Core:                        True
    MO Core:                       False
    Hold Metric:                   False
    Metric Power:                  0.000
    Fitting Condition:             1E-12
    Q Shell Max:                      11


  DFHelper Memory: AOs need 0.652 GiB; user supplied 5.960 GiB. 
  Using in-core AOs.


   => Time Integration <= 

       Omega       Weight       Disp20,u         Disp20   time [s]
   2.269e+01    6.667e-02      6.246e-04      5.897e-04          1
   4.147e+00    1.495e-01      9.377e-03      8.547e-03          2
   1.572e+00    2.191e-01      2.498e-02      2.105e-02          2
   7.589e-01    2.693e-01      3.763e-02      2.843e-02          3
   4.049e-01    2.955e-01      3.895e-02      2.676e-02          4
   2.223e-01    2.955e-01      3.090e-02      2.020e-02          5
   1.186e-01    2.693e-01      2.103e-02      1.350e-02          6
   5.727e-02    2.191e-01      1.312e-02      8.378e-03          7
   2.170e-02    1.495e-01      7.362e-03      4.693e-03          8
   3.966e-03    6.667e-02      2.939e-03      1.873e-03          8

    Disp20,u                        -29.74894332 [mEh]
    Disp20                          -21.32986965 [mEh]

  ==> E20 Dispersion (MP2) <== 


    Disp20 (MP2)                    -29.65209956 [mEh]
    Exch-Disp20,u                     6.50476463 [mEh]
    Scaling Scheme                    FIXED
    Scaling Factor                    0.770
    Est. Exch-Disp20,r                5.00866877 [mEh]

   SAPT(DFT) Results
  ---------------------------------------------------------------------------------------------------------
    Electrostatics                  -55.74238826 [mEh]    -34.97887673 [kcal/mol]   -146.35162022 [kJ/mol]
      Elst1,r                       -55.74238826 [mEh]    -34.97887673 [kcal/mol]   -146.35162022 [kJ/mol]

    Exchange                         99.76229930 [mEh]     62.60178794 [kcal/mol]    261.92588072 [kJ/mol]
      Exch1                          99.76229930 [mEh]     62.60178794 [kcal/mol]    261.92588072 [kJ/mol]
      Exch1(S^2)                     93.38667346 [mEh]     58.60102232 [kcal/mol]    245.18667739 [kJ/mol]

    Induction                       -44.94405748 [mEh]    -28.20282186 [kcal/mol]   -118.00060666 [kJ/mol]
      Ind2,r                        -60.34045523 [mEh]    -37.86420731 [kcal/mol]   -158.42384337 [kJ/mol]
      Exch-Ind2,r                    37.48600521 [mEh]     23.52282340 [kcal/mol]     98.41949311 [kJ/mol]
      Induction (A<-B)               -4.49564158 [mEh]     -2.82105768 [kcal/mol]    -11.80330534 [kJ/mol]
      Induction (A->B)              -18.35880844 [mEh]    -11.52032623 [kcal/mol]    -48.20104493 [kJ/mol]
      delta HF,r (2)                -22.08960746 [mEh]    -13.86143795 [kcal/mol]    -57.99625640 [kJ/mol]

    Dispersion                      -16.32120089 [mEh]    -10.24170818 [kcal/mol]    -42.85130702 [kJ/mol]
      Disp2,r                       -21.32986965 [mEh]    -13.38469528 [kcal/mol]    -56.00156506 [kJ/mol]
      Disp2,u                       -29.65209956 [mEh]    -18.60697339 [kcal/mol]    -77.85157666 [kJ/mol]
      Est. Exch-Disp2,r               5.00866877 [mEh]      3.14298710 [kcal/mol]     13.15025804 [kJ/mol]
      Exch-Disp2,u                    6.50476463 [mEh]      4.08180143 [kcal/mol]     17.07825720 [kJ/mol]

    Total SAPT(DFT)                 -17.24534733 [mEh]    -10.82161883 [kcal/mol]    -45.27765318 [kJ/mol]
  ---------------------------------------------------------------------------------------------------------

*** tstop() called on cmpsrv002 at Thu Sep 19 15:17:37 2024
Module time:
	user time   =     404.39 seconds =       6.74 minutes
	system time =      32.25 seconds =       0.54 minutes
	total time  =       4414 seconds =      73.57 minutes
Total time:
	user time   =     702.33 seconds =      11.71 minutes
	system time =      48.21 seconds =       0.80 minutes
	total time  =       4812 seconds =      80.20 minutes

Traceback (most recent call last):
  File "/home/vance/anaconda3/envs/p4env/bin/psi4", line 387, in <module>
    exec(content)
  File "<string>", line 61, in <module>
  File "/home/vance/anaconda3/envs/p4env/lib/python3.12/site-packages/psi4/driver/p4util/python_helpers.py", line 1121, in _core_variable
    raise KeyError(f"psi4.core.variable: Requested variable '{key}' was not set!\n")

KeyError: "psi4.core.variable: Requested variable 'SAPT IND20,R ENERGY' was not set!\n"


Printing out the relevant lines from the Psithon --> Python processed input file:
    eelst = psi4.core.variable('SAPT ELST ENERGY')
    eexch = psi4.core.variable('SAPT EXCH ENERGY')
    eind = psi4.core.variable('SAPT IND ENERGY')
    edisp = psi4.core.variable('SAPT DISP ENERGY')
    esapt = psi4.core.variable('SAPT TOTAL ENERGY')
--> eind20r = psi4.core.variable('SAPT IND20,R ENERGY')
    eexind20r = psi4.core.variable('SAPT EXCH-IND20,R ENERGY')
    eind20u = psi4.core.variable('SAPT IND20,U ENERGY')
    eexind20u = psi4.core.variable('SAPT EXCH-IND20,U ENERGY')
    edisp20 = psi4.core.variable('SAPT DISP20 ENERGY')
    eexdisp20 = psi4.core.variable('SAPT EXCH-DISP20 ENERGY')

!--------------------------------------------------------------------------------!
!                                                                                !
!  "psi4.core.variable: Requested variable 'SAPT IND20,R ENERGY' was not set!\n" !
!                                                                                !
!--------------------------------------------------------------------------------!

    Psi4 stopped on: Thursday, 19 September 2024 03:17PM
    Psi4 wall time for execution: 1:20:13.07

*** Psi4 encountered an error. Buy a developer more coffee!
*** Resources and help at github.com/psi4/psi4.
