
    -----------------------------------------------------------------------
          Psi4: An Open-Source Ab Initio Electronic Structure Package
                               Psi4 1.9.1 release

                         Git: Rev {} zzzzzzz 


    D. G. A. Smith, L. A. Burns, A. C. Simmonett, R. M. Parrish,
    M. C. Schieber, R. Galvelis, P. Kraus, H. Kruse, R. Di Remigio,
    A. Alenaizan, A. M. James, S. Lehtola, J. P. Misiewicz, M. Scheurer,
    R. A. Shaw, J. B. Schriber, Y. Xie, Z. L. Glick, D. A. Sirianni,
    J. S. O'Brien, J. M. Waldrop, A. Kumar, E. G. Hohenstein,
    B. P. Pritchard, B. R. Brooks, H. F. Schaefer III, A. Yu. Sokolov,
    K. Patkowski, A. E. DePrince III, U. Bozkaya, R. A. King,
    F. A. Evangelista, J. M. Turney, T. D. Crawford, C. D. Sherrill,
    J. Chem. Phys. 152(18) 184108 (2020). https://doi.org/10.1063/5.0006002

                            Additional Code Authors
    E. T. Seidl, C. L. Janssen, E. F. Valeev, M. L. Leininger,
    J. F. Gonthier, R. M. Richard, H. R. McAlexander, M. Saitow, X. Wang,
    P. Verma, M. H. Lechner, A. Jiang, S. Behnle, A. G. Heide,
    M. F. Herbst, and D. L. Poole

             Previous Authors, Complete List of Code Contributors,
                       and Citations for Specific Modules
    https://github.com/psi4/psi4/blob/master/codemeta.json
    https://github.com/psi4/psi4/graphs/contributors
    http://psicode.org/psi4manual/master/introduction.html#citing-psifour

    -----------------------------------------------------------------------


    Psi4 started on: Friday, 20 September 2024 11:26AM

    Process ID: 611719
    Host:       cmpsrv002
    PSIDATADIR: /home/vance/anaconda3/envs/p4env/share/psi4
    Memory:     500.0 MiB
    Threads:    8
    
  ==> Input File <==

--------------------------------------------------------------------------
#charge=0 charge_a=0 charge_b=0 selection_a=1-2 selection_b=3-6 scaling=0.8 benchmark_Eint=-4.975 benchmark_unit=kcal/mol group=XH-N
set_num_threads(4)
memory 8 GB
basis this_basis {
    assign    def2-qzvp
}

molecule {
     0 1
    --
     0 1
     H        0.00000       -0.31269        0.00000
    Cl       -0.00000        1.03066        0.00000
    --
     0 1
     N        0.00000       -1.69013        0.00000
     H       -0.47318       -2.04913        0.81958
     H       -0.47318       -2.04913       -0.81958
     H        0.94637       -2.04913        0.00000
}

set {
    sapt_dft_functional     PBE0
    scf_type                DF
    freeze_core             true
    sapt_dft_grac_shift_a    0.116251
    sapt_dft_grac_shift_b    0.113162
    sapt_dft_do_hybrid      true
    sapt_dft_do_dhf         false
    do_ind_exch_sinf        true
    do_disp_exch_sinf       true
}

nrg = energy('sapt(DFT)')

eelst = psi4.variable('SAPT ELST ENERGY')
eexch = psi4.variable('SAPT EXCH ENERGY')
eind = psi4.variable('SAPT IND ENERGY')
edisp = psi4.variable('SAPT DISP ENERGY')
esapt = psi4.variable('SAPT TOTAL ENERGY')
print('sapt elst energy =', eelst)
print('sapt exch energy =', eexch)
print('sapt total induction energy =', eind)
print('sapt total dispersion energy =', edisp)
print('sapt total energy =', esapt)
--------------------------------------------------------------------------
  Threads set to 4 by Python driver.

  Memory set to   7.451 GiB by Python driver.

Scratch directory: /scratch2/vance/psi4/

*** tstart() called on cmpsrv002
*** at Fri Sep 20 11:26:30 2024

  SAPT does not make use of molecular symmetry, further calculations in C1 point group.

         ---------------------------------------------------------
                            SAPT(DFT) Procedure                    

                           by Daniel G. A. Smith                   
         ---------------------------------------------------------

Warning! The default value of SAPT_DFT_EXCH_DISP_SCALE_SCHEME has changed from DISP to FIXED. Please be careful comparing results with earlier versions. 

  ==> Algorithm <==

   SAPT DFT Functional             PBE0
   Monomer A GRAC Shift        0.116251
   Monomer B GRAC Shift        0.113162
   Delta HF                       False
   JK Algorithm                      DF

   Required computations:
     DFT (Monomer A)
     DFT (Monomer B)

   => Loading Basis Set <=

    Name: THIS_BASIS
    Role: ORBITAL
    Keyword: BASIS
    atoms 1, 4-6 entry H          line    15 file /home/vance/anaconda3/envs/p4env/share/psi4/basis/def2-qzvp.gbs 
    atoms 2      entry CL         line   809 file /home/vance/anaconda3/envs/p4env/share/psi4/basis/def2-qzvp.gbs 
    atoms 3      entry N          line   242 file /home/vance/anaconda3/envs/p4env/share/psi4/basis/def2-qzvp.gbs 

   => Libint2 <=

    Primary   basis highest AM E, G, H:  6, 6, 3
    Auxiliary basis highest AM E, G, H:  7, 7, 4
    Onebody   basis highest AM E, G, H:  -, -, -
    Solid Harmonics ordering:            Gaussian

*** tstart() called on cmpsrv002
*** at Fri Sep 20 11:26:30 2024

   => Loading Basis Set <=

    Name: THIS_BASIS
    Role: ORBITAL
    Keyword: BASIS
    atoms 1, 4-6 entry H          line    15 file /home/vance/anaconda3/envs/p4env/share/psi4/basis/def2-qzvp.gbs 
    atoms 2      entry CL         line   809 file /home/vance/anaconda3/envs/p4env/share/psi4/basis/def2-qzvp.gbs 
    atoms 3      entry N          line   242 file /home/vance/anaconda3/envs/p4env/share/psi4/basis/def2-qzvp.gbs 


         ---------------------------------------------------------
                          SAPT(DFT): DFT Monomer A                 
         ---------------------------------------------------------
                                   SCF
               by Justin Turney, Rob Parrish, Andy Simmonett
                          and Daniel G. A. Smith
                              RKS Reference
                        4 Threads,   7629 MiB Core
         ---------------------------------------------------------

  ==> Geometry <==

    Molecular point group: c1
    Full point group: Cs

    Geometry (in Angstrom), charge = 0, multiplicity = 1:

       Center              X                  Y                   Z               Mass       
    ------------   -----------------  -----------------  -----------------  -----------------
         H           -0.000000190144    -0.423312546139     0.000000000000     1.007825032230
         CL          -0.000000190144     0.920037453861     0.000000000000    34.968852682000
      Gh(N)          -0.000000190144    -1.800752546139     0.000000000000    14.003074004430
      Gh(H)          -0.473180190144    -2.159752546139     0.819580000000     1.007825032230
      Gh(H)          -0.473180190144    -2.159752546139    -0.819580000000     1.007825032230
      Gh(H)           0.946369809856    -2.159752546139     0.000000000000     1.007825032230

  Running in c1 symmetry.

  Rotational constants: A =      6.22544  B =      0.18597  C =      0.18597 [cm^-1]
  Rotational constants: A = 186633.95025  B =   5575.33063  C =   5575.33014 [MHz]
  Nuclear repulsion =    6.696700473733578

  Charge       = 0
  Multiplicity = 1
  Electrons    = 18
  Nalpha       = 9
  Nbeta        = 9

  ==> Algorithm <==

  SCF Algorithm Type is DF.
  DIIS enabled.
  MOM disabled.
  Fractional occupation disabled.
  Guess Type is SAD.
  Energy threshold   = 1.00e-08
  Density threshold  = 1.00e-08
  Integral threshold = 1.00e-12

  ==> Primary Basis <==

  Basis Set: THIS_BASIS
    Blend: DEF2-QZVP
    Number of shells: 79
    Number of basis functions: 247
    Number of Cartesian functions: 298
    Spherical Harmonics?: true
    Max angular momentum: 4

  ==> DFT Potential <==

   => LibXC <=

    Version 6.2.2
    S. Lehtola, C. Steigemann, M. J.T. Oliveira, and M. A.L. Marques.,  SoftwareX 7, 1–5 (2018) (10.1016/j.softx.2017.11.002)

   => Composite Functional: PBE0 <= 

    PBE0 Hyb-GGA Exchange-Correlation Functional

    C. Adamo and V. Barone.,  J. Chem. Phys. 110, 6158 (1999) (10.1063/1.478522)
    M. Ernzerhof and G. E. Scuseria.,  J. Chem. Phys. 110, 5029 (1999) (10.1063/1.478401)

    Deriv               =              1
    GGA                 =           TRUE
    Meta                =          FALSE

    Exchange Hybrid     =           TRUE
    MP2 Hybrid          =          FALSE

   => Exchange Functionals <=

    0.7500   Perdew, Burke & Ernzerhof

   => Exact (HF) Exchange <=

    0.2500               HF 

   => Correlation Functionals <=

    1.0000   Perdew, Burke & Ernzerhof

   => LibXC Density Thresholds  <==

    XC_HYB_GGA_XC_PBEH:  1.00E-15 

   => Asymptotic Correction <=

    X Functional        =    XC_GGA_X_LB
    C Functional        =   XC_LDA_C_VWN
    Bulk Shift          =       0.116251
    GRAC Alpha          =       0.500000
    GRAC Beta           =      40.000000

   => Molecular Quadrature <=

    Radial Scheme          =       TREUTLER
    Pruning Scheme         =           NONE
    Nuclear Scheme         =       TREUTLER

    Blocking Scheme        =         OCTREE
    BS radius alpha        =              1
    Pruning alpha          =              1
    Radial Points          =             75
    Spherical Points       =            302
    Total Points           =         130131
    Total Blocks           =           1049
    Max Points             =            256
    Max Functions          =            238
    Weights Tolerance      =       1.00E-15

   => Loading Basis Set <=

    Name: (THIS_BASIS AUX)
    Role: JKFIT
    Keyword: DF_BASIS_SCF
    atoms 1, 4-6 entry H          line    18 file /home/vance/anaconda3/envs/p4env/share/psi4/basis/def2-universal-jkfit.gbs 
    atoms 2      entry CL         line   986 file /home/vance/anaconda3/envs/p4env/share/psi4/basis/def2-universal-jkfit.gbs 
    atoms 3      entry N          line   258 file /home/vance/anaconda3/envs/p4env/share/psi4/basis/def2-universal-jkfit.gbs 

  ==> Integral Setup <==

  ==> DiskDFJK: Density-Fitted J/K Matrices <==

    J tasked:                  Yes
    K tasked:                  Yes
    wK tasked:                  No
    OpenMP threads:              4
    Integrals threads:           4
    Memory [MiB]:             4947
    Algorithm:                Core
    Integral Cache:           SAVE
    Schwarz Cutoff:          1E-12
    Fitting Condition:       1E-10

   => Auxiliary Basis Set <=

  Basis Set: (THIS_BASIS AUX)
    Blend: DEF2-UNIVERSAL-JKFIT
    Number of shells: 87
    Number of basis functions: 277
    Number of Cartesian functions: 328
    Spherical Harmonics?: true
    Max angular momentum: 4

  Cached 100.0% of DFT collocation blocks in 0.756 [GiB].

  Minimum eigenvalue in the overlap matrix is 1.0292610383E-04.
  Reciprocal condition number of the overlap matrix is 1.1596202189E-05.
    Using symmetric orthogonalization.

  ==> Pre-Iterations <==

  SCF Guess: Superposition of Atomic Densities via on-the-fly atomic UHF (no occupation information).

   -------------------------
    Irrep   Nso     Nmo    
   -------------------------
     A        247     247 
   -------------------------
    Total     247     247
   -------------------------

  ==> Iterations <==

                           Total Energy        Delta E     RMS |[F,P]|

   @DF-RKS iter SAD:  -460.52654332639605   -4.60527e+02   0.00000e+00 
   @DF-RKS iter   1:  -460.65206436990854   -1.25521e-01   1.20747e-03 DIIS/ADIIS
   @DF-RKS iter   2:  -460.65626977664425   -4.20541e-03   1.00473e-03 DIIS/ADIIS
   @DF-RKS iter   3:  -460.67723309954425   -2.09633e-02   9.31917e-05 DIIS
   @DF-RKS iter   4:  -460.67750148678289   -2.68387e-04   1.84889e-05 DIIS
   @DF-RKS iter   5:  -460.67751111457420   -9.62779e-06   2.59165e-06 DIIS
   @DF-RKS iter   6:  -460.67751074682741    3.67747e-07   1.27565e-07 DIIS
   @DF-RKS iter   7:  -460.67751074232837    4.49904e-09   7.94553e-09 DIIS
  Energy and wave function converged.


  ==> Post-Iterations <==

   Electrons on quadrature grid:
      Ntotal   =   17.9999975071 ; deviation = -2.493e-06 

    Orbital Energies [Eh]
    ---------------------

    Doubly Occupied:                                                      

       1A   -101.839131     2A     -9.660372     3A     -7.395086  
       4A     -7.386749     5A     -7.386749     6A     -0.975584  
       7A     -0.595429     8A     -0.462838     9A     -0.462837  

    Virtual:                                                              

      10A     -0.130201    11A     -0.014107    12A      0.001172  
      13A      0.012594    14A      0.012621    15A      0.087902  
      16A      0.104648    17A      0.104649    18A      0.127362  
      19A      0.127367    20A      0.195764    21A      0.211005  
      22A      0.211005    23A      0.265847    24A      0.265851  
      25A      0.275353    26A      0.375054    27A      0.387636  
      28A      0.387645    29A      0.516896    30A      0.516909  
      31A      0.518287    32A      0.551138    33A      0.687446  
      34A      0.687458    35A      0.707963    36A      0.801717  
      37A      0.810020    38A      0.813858    39A      0.813877  
      40A      0.822747    41A      0.918016    42A      0.918022  
      43A      0.983146    44A      0.983150    45A      0.996614  
      46A      0.996620    47A      1.038175    48A      1.053359  
      49A      1.053359    50A      1.092586    51A      1.134220  
      52A      1.134230    53A      1.170778    54A      1.170779  
      55A      1.182628    56A      1.206544    57A      1.208078  
      58A      1.226964    59A      1.226971    60A      1.294749  
      61A      1.351632    62A      1.351634    63A      1.425137  
      64A      1.579922    65A      1.769863    66A      1.769864  
      67A      1.874190    68A      1.974310    69A      1.974316  
      70A      2.103608    71A      2.127217    72A      2.127220  
      73A      2.178072    74A      2.178075    75A      2.273815  
      76A      2.325260    77A      2.359774    78A      2.359781  
      79A      2.441948    80A      2.441948    81A      2.472344  
      82A      2.524326    83A      2.553641    84A      2.553642  
      85A      2.571824    86A      2.709084    87A      2.709088  
      88A      2.716882    89A      2.716893    90A      2.757974  
      91A      2.862311    92A      2.862324    93A      2.923688  
      94A      2.960214    95A      2.960215    96A      3.008105  
      97A      3.115785    98A      3.115786    99A      3.182889  
     100A      3.219875   101A      3.219876   102A      3.288933  
     103A      3.290689   104A      3.290689   105A      3.327467  
     106A      3.407145   107A      3.432927   108A      3.432930  
     109A      3.453765   110A      3.456623   111A      3.483829  
     112A      3.483829   113A      3.620347   114A      3.620356  
     115A      3.633216   116A      3.723558   117A      3.723560  
     118A      3.760415   119A      3.760415   120A      3.805379  
     121A      3.808045   122A      3.888529   123A      3.888531  
     124A      3.948543   125A      3.948546   126A      3.948821  
     127A      4.067228   128A      4.136454   129A      4.157412  
     130A      4.280842   131A      4.280843   132A      4.366723  
     133A      4.380536   134A      4.380546   135A      4.620546  
     136A      4.805924   137A      4.805929   138A      5.015413  
     139A      5.015418   140A      5.231960   141A      5.588581  
     142A      5.723067   143A      5.744740   144A      5.838275  
     145A      5.838280   146A      6.197088   147A      6.197093  
     148A      6.339326   149A      6.339326   150A      6.403556  
     151A      6.530673   152A      6.530682   153A      6.672889  
     154A      6.672890   155A      6.722235   156A      7.054238  
     157A      7.057000   158A      7.057005   159A      7.119735  
     160A      7.119738   161A      7.246672   162A      7.474317  
     163A      7.474320   164A      7.488291   165A      7.508014  
     166A      7.696863   167A      7.696879   168A      7.882527  
     169A      7.914732   170A      7.914759   171A      7.949630  
     172A      7.969644   173A      7.969662   174A      8.065718  
     175A      8.160585   176A      8.221097   177A      8.221098  
     178A      8.451480   179A      8.495975   180A      8.495988  
     181A      8.504840   182A      8.504844   183A      8.597693  
     184A      8.597696   185A      8.612547   186A      8.643096  
     187A      8.717959   188A      8.717964   189A      8.828533  
     190A      8.887795   191A      8.916678   192A      8.916682  
     193A      8.993346   194A      9.120830   195A      9.217951  
     196A      9.217959   197A      9.335807   198A      9.397070  
     199A      9.397075   200A      9.538157   201A      9.726877  
     202A      9.726886   203A      9.778725   204A      9.989983  
     205A      9.989988   206A     10.011846   207A     10.183017  
     208A     10.268361   209A     10.268370   210A     10.524841  
     211A     10.524842   212A     10.634012   213A     10.634012  
     214A     10.808729   215A     10.808737   216A     10.857036  
     217A     10.930268   218A     10.930272   219A     10.987397  
     220A     11.674370   221A     11.682572   222A     11.682584  
     223A     11.970933   224A     12.195263   225A     12.195275  
     226A     12.881507   227A     13.494954   228A     13.682146  
     229A     13.682153   230A     14.013056   231A     14.117439  
     232A     14.117445   233A     14.416463   234A     14.416471  
     235A     14.742451   236A     16.242153   237A     18.103097  
     238A     18.103108   239A     25.428356   240A     28.984519  
     241A     41.698560   242A     41.698560   243A     41.896278  
     244A     70.201190   245A     98.525997   246A    318.639605  
     247A    526.070832  

    Final Occupation by Irrep:
              A 
    DOCC [     9 ]
    NA   [     9 ]
    NB   [     9 ]

  @DF-RKS Final Energy:  -460.67751074232837

   => Energetics <=

    Nuclear Repulsion Energy =              6.6967004737335785
    One-Electron Energy =                -649.3448382086070296
    Two-Electron Energy =                 203.4298871335807917
    DFT Exchange-Correlation Energy =     -21.4592601410357062
    Empirical Dispersion Energy =           0.0000000000000000
    VV10 Nonlocal Energy =                  0.0000000000000000
    Total Energy =                       -460.6775107423283657

Computation Completed


Properties will be evaluated at   0.000000,   0.000000,   0.000000 [a0]

Properties computed using the SCF density matrix


 Multipole Moments:

 ------------------------------------------------------------------------------------
     Multipole            Electronic (a.u.)      Nuclear  (a.u.)        Total (a.u.)
 ------------------------------------------------------------------------------------

 L = 1.  Multiply by 2.5417464519 to convert [e a0] to [Debye]
 Dipole X            :          0.0000034           -0.0000065           -0.0000031
 Dipole Y            :        -29.2293221           28.7565750           -0.4727471
 Dipole Z            :          0.0000000            0.0000000            0.0000000
 Magnitude           :                                                    0.4727471

 ------------------------------------------------------------------------------------

*** tstop() called on cmpsrv002 at Fri Sep 20 11:26:33 2024
Module time:
	user time   =      10.79 seconds =       0.18 minutes
	system time =       0.80 seconds =       0.01 minutes
	total time  =          3 seconds =       0.05 minutes
Total time:
	user time   =      10.84 seconds =       0.18 minutes
	system time =       0.81 seconds =       0.01 minutes
	total time  =          3 seconds =       0.05 minutes
   => Libint2 <=

    Primary   basis highest AM E, G, H:  6, 6, 3
    Auxiliary basis highest AM E, G, H:  7, 7, 4
    Onebody   basis highest AM E, G, H:  -, -, -
    Solid Harmonics ordering:            Gaussian

*** tstart() called on cmpsrv002
*** at Fri Sep 20 11:26:33 2024

   => Loading Basis Set <=

    Name: THIS_BASIS
    Role: ORBITAL
    Keyword: BASIS
    atoms 1, 4-6 entry H          line    15 file /home/vance/anaconda3/envs/p4env/share/psi4/basis/def2-qzvp.gbs 
    atoms 2      entry CL         line   809 file /home/vance/anaconda3/envs/p4env/share/psi4/basis/def2-qzvp.gbs 
    atoms 3      entry N          line   242 file /home/vance/anaconda3/envs/p4env/share/psi4/basis/def2-qzvp.gbs 


         ---------------------------------------------------------
                          SAPT(DFT): DFT Monomer B                 
         ---------------------------------------------------------
                                   SCF
               by Justin Turney, Rob Parrish, Andy Simmonett
                          and Daniel G. A. Smith
                              RKS Reference
                        4 Threads,   7629 MiB Core
         ---------------------------------------------------------

  ==> Geometry <==

    Molecular point group: c1
    Full point group: Cs

    Geometry (in Angstrom), charge = 0, multiplicity = 1:

       Center              X                  Y                   Z               Mass       
    ------------   -----------------  -----------------  -----------------  -----------------
      Gh(H)          -0.000000190144    -0.423312546139     0.000000000000     1.007825032230
      Gh(CL)         -0.000000190144     0.920037453861     0.000000000000    34.968852682000
         N           -0.000000190144    -1.800752546139     0.000000000000    14.003074004430
         H           -0.473180190144    -2.159752546139     0.819580000000     1.007825032230
         H           -0.473180190144    -2.159752546139    -0.819580000000     1.007825032230
         H            0.946369809856    -2.159752546139     0.000000000000     1.007825032230

  Running in c1 symmetry.

  Rotational constants: A =      6.22544  B =      0.18597  C =      0.18597 [cm^-1]
  Rotational constants: A = 186633.95025  B =   5575.33063  C =   5575.33014 [MHz]
  Nuclear repulsion =   11.947581311396526

  Charge       = 0
  Multiplicity = 1
  Electrons    = 10
  Nalpha       = 5
  Nbeta        = 5

  ==> Algorithm <==

  SCF Algorithm Type is DF.
  DIIS enabled.
  MOM disabled.
  Fractional occupation disabled.
  Guess Type is SAD.
  Energy threshold   = 1.00e-08
  Density threshold  = 1.00e-08
  Integral threshold = 1.00e-12

  ==> Primary Basis <==

  Basis Set: THIS_BASIS
    Blend: DEF2-QZVP
    Number of shells: 79
    Number of basis functions: 247
    Number of Cartesian functions: 298
    Spherical Harmonics?: true
    Max angular momentum: 4

  ==> DFT Potential <==

   => LibXC <=

    Version 6.2.2
    S. Lehtola, C. Steigemann, M. J.T. Oliveira, and M. A.L. Marques.,  SoftwareX 7, 1–5 (2018) (10.1016/j.softx.2017.11.002)

   => Composite Functional: PBE0 <= 

    PBE0 Hyb-GGA Exchange-Correlation Functional

    C. Adamo and V. Barone.,  J. Chem. Phys. 110, 6158 (1999) (10.1063/1.478522)
    M. Ernzerhof and G. E. Scuseria.,  J. Chem. Phys. 110, 5029 (1999) (10.1063/1.478401)

    Deriv               =              1
    GGA                 =           TRUE
    Meta                =          FALSE

    Exchange Hybrid     =           TRUE
    MP2 Hybrid          =          FALSE

   => Exchange Functionals <=

    0.7500   Perdew, Burke & Ernzerhof

   => Exact (HF) Exchange <=

    0.2500               HF 

   => Correlation Functionals <=

    1.0000   Perdew, Burke & Ernzerhof

   => LibXC Density Thresholds  <==

    XC_HYB_GGA_XC_PBEH:  1.00E-15 

   => Asymptotic Correction <=

    X Functional        =    XC_GGA_X_LB
    C Functional        =   XC_LDA_C_VWN
    Bulk Shift          =       0.113162
    GRAC Alpha          =       0.500000
    GRAC Beta           =      40.000000

   => Molecular Quadrature <=

    Radial Scheme          =       TREUTLER
    Pruning Scheme         =           NONE
    Nuclear Scheme         =       TREUTLER

    Blocking Scheme        =         OCTREE
    BS radius alpha        =              1
    Pruning alpha          =              1
    Radial Points          =             75
    Spherical Points       =            302
    Total Points           =         130131
    Total Blocks           =           1049
    Max Points             =            256
    Max Functions          =            238
    Weights Tolerance      =       1.00E-15

   => Loading Basis Set <=

    Name: (THIS_BASIS AUX)
    Role: JKFIT
    Keyword: DF_BASIS_SCF
    atoms 1, 4-6 entry H          line    18 file /home/vance/anaconda3/envs/p4env/share/psi4/basis/def2-universal-jkfit.gbs 
    atoms 2      entry CL         line   986 file /home/vance/anaconda3/envs/p4env/share/psi4/basis/def2-universal-jkfit.gbs 
    atoms 3      entry N          line   258 file /home/vance/anaconda3/envs/p4env/share/psi4/basis/def2-universal-jkfit.gbs 

  ==> Integral Setup <==

  ==> DiskDFJK: Density-Fitted J/K Matrices <==

    J tasked:                  Yes
    K tasked:                  Yes
    wK tasked:                  No
    OpenMP threads:              4
    Integrals threads:           4
    Memory [MiB]:             4947
    Algorithm:                Core
    Integral Cache:           SAVE
    Schwarz Cutoff:          1E-12
    Fitting Condition:       1E-10

   => Auxiliary Basis Set <=

  Basis Set: (THIS_BASIS AUX)
    Blend: DEF2-UNIVERSAL-JKFIT
    Number of shells: 87
    Number of basis functions: 277
    Number of Cartesian functions: 328
    Spherical Harmonics?: true
    Max angular momentum: 4

  Cached 100.0% of DFT collocation blocks in 0.756 [GiB].

  Minimum eigenvalue in the overlap matrix is 1.0292610383E-04.
  Reciprocal condition number of the overlap matrix is 1.1596202189E-05.
    Using symmetric orthogonalization.

  ==> Pre-Iterations <==

  SCF Guess: Superposition of Atomic Densities via on-the-fly atomic UHF (no occupation information).

   -------------------------
    Irrep   Nso     Nmo    
   -------------------------
     A        247     247 
   -------------------------
    Total     247     247
   -------------------------

  ==> Iterations <==

                           Total Energy        Delta E     RMS |[F,P]|

   @DF-RKS iter SAD:   -56.06961370784391   -5.60696e+01   0.00000e+00 
   @DF-RKS iter   1:   -56.28032781326212   -2.10714e-01   3.14605e-03 DIIS/ADIIS
   @DF-RKS iter   2:   -56.01419050058801    2.66137e-01   4.14370e-03 DIIS/ADIIS
   @DF-RKS iter   3:   -56.51876928616367   -5.04579e-01   2.24903e-04 DIIS/ADIIS
   @DF-RKS iter   4:   -56.52031464280808   -1.54536e-03   2.02400e-05 DIIS
   @DF-RKS iter   5:   -56.52032257020834   -7.92740e-06   5.26666e-06 DIIS
   @DF-RKS iter   6:   -56.52032257981161   -9.60326e-09   2.00568e-07 DIIS
   @DF-RKS iter   7:   -56.52032253590351    4.39081e-08   2.62614e-08 DIIS
   @DF-RKS iter   8:   -56.52032252567705    1.02265e-08   3.16673e-09 DIIS
   @DF-RKS iter   9:   -56.52032252557144    1.05615e-10   3.53983e-10 DIIS
  Energy and wave function converged.


  ==> Post-Iterations <==

   Electrons on quadrature grid:
      Ntotal   =    9.9999977286 ; deviation = -2.271e-06 

    Orbital Energies [Eh]
    ---------------------

    Doubly Occupied:                                                      

       1A    -14.471973     2A     -0.987926     3A     -0.590475  
       4A     -0.590473     5A     -0.392768  

    Virtual:                                                              

       6A     -0.084579     7A     -0.015346     8A     -0.015344  
       9A      0.006177    10A      0.076920    11A      0.076924  
      12A      0.112471    13A      0.143728    14A      0.143731  
      15A      0.160856    16A      0.253137    17A      0.265695  
      18A      0.269716    19A      0.269718    20A      0.315404  
      21A      0.315407    22A      0.436167    23A      0.526660  
      24A      0.590644    25A      0.590646    26A      0.602067  
      27A      0.602076    28A      0.615272    29A      0.658295  
      30A      0.658301    31A      0.673307    32A      0.706657  
      33A      0.706659    34A      0.767714    35A      0.790684  
      36A      0.811655    37A      0.811666    38A      0.839388  
      39A      0.839402    40A      0.900858    41A      0.964853  
      42A      0.964857    43A      1.054178    44A      1.062418  
      45A      1.062419    46A      1.070893    47A      1.126759  
      48A      1.270683    49A      1.270683    50A      1.305955  
      51A      1.556942    52A      1.616246    53A      1.616248  
      54A      1.667894    55A      1.667898    56A      1.685278  
      57A      1.687115    58A      1.726841    59A      1.919524  
      60A      1.919528    61A      1.952566    62A      1.952568  
      63A      2.014166    64A      2.041911    65A      2.093716  
      66A      2.093719    67A      2.096465    68A      2.123861  
      69A      2.123866    70A      2.209627    71A      2.209632  
      72A      2.217721    73A      2.261975    74A      2.261975  
      75A      2.314550    76A      2.314557    77A      2.347493  
      78A      2.347498    79A      2.359265    80A      2.402886  
      81A      2.402886    82A      2.461414    83A      2.495477  
      84A      2.599838    85A      2.599840    86A      2.622040  
      87A      2.622044    88A      2.625273    89A      2.745628  
      90A      2.821250    91A      2.821265    92A      2.889177  
      93A      2.901318    94A      2.958510    95A      2.958514  
      96A      3.053912    97A      3.055540    98A      3.055561  
      99A      3.158898   100A      3.243683   101A      3.243684  
     102A      3.409298   103A      3.546099   104A      3.573961  
     105A      3.573970   106A      3.766204   107A      3.858712  
     108A      3.957042   109A      3.957058   110A      3.990203  
     111A      3.990205   112A      4.212331   113A      4.212335  
     114A      4.217687   115A      4.376549   116A      4.409173  
     117A      4.412424   118A      4.436777   119A      4.436786  
     120A      4.656122   121A      4.656127   122A      4.981667  
     123A      5.027661   124A      5.027673   125A      5.246680  
     126A      5.246680   127A      5.474720   128A      5.474721  
     129A      5.565338   130A      5.699703   131A      5.700748  
     132A      5.710556   133A      5.710562   134A      5.732106  
     135A      5.776785   136A      5.776791   137A      5.869989  
     138A      5.869997   139A      5.894569   140A      5.894579  
     141A      5.898503   142A      6.044084   143A      6.045671  
     144A      6.045677   145A      6.145503   146A      6.155402  
     147A      6.203894   148A      6.287017   149A      6.287018  
     150A      6.304602   151A      6.392299   152A      6.392305  
     153A      6.459228   154A      6.582473   155A      6.582473  
     156A      6.707507   157A      6.814305   158A      6.814316  
     159A      6.867297   160A      6.871892   161A      7.107758  
     162A      7.107777   163A      7.144197   164A      7.144200  
     165A      7.215957   166A      7.215965   167A      7.259791  
     168A      7.289957   169A      7.289957   170A      7.414213  
     171A      7.585351   172A      7.595893   173A      7.595894  
     174A      7.720490   175A      7.720502   176A      7.809156  
     177A      7.820433   178A      7.960747   179A      7.960755  
     180A      8.052708   181A      8.052709   182A      8.073341  
     183A      8.100038   184A      8.154728   185A      8.189142  
     186A      8.203196   187A      8.203198   188A      8.385306  
     189A      8.465481   190A      8.465482   191A      8.523171  
     192A      8.523176   193A      8.593204   194A      8.593205  
     195A      8.641792   196A      8.844187   197A      8.875382  
     198A      8.875427   199A      8.971470   200A      8.971496  
     201A      9.321805   202A      9.374925   203A      9.374926  
     204A      9.464783   205A      9.464787   206A      9.694988  
     207A      9.724691   208A      9.724694   209A      9.774090  
     210A      9.993786   211A      9.999238   212A      9.999243  
     213A     10.177248   214A     10.229991   215A     10.229994  
     216A     11.046527   217A     11.162063   218A     11.162065  
     219A     11.527751   220A     11.587737   221A     11.587742  
     222A     11.793881   223A     11.793898   224A     11.841453  
     225A     11.905581   226A     12.767719   227A     14.317838  
     228A     14.317842   229A     15.217559   230A     15.487969  
     231A     21.598467   232A     21.598467   233A     21.606780  
     234A     21.606780   235A     21.753970   236A     21.753971  
     237A     21.907686   238A     22.563286   239A     35.757732  
     240A     38.430744   241A     85.602762   242A    118.061324  
     243A    118.061324   244A    118.106498   245A    197.953723  
     246A    234.102862   247A   1052.137309  

    Final Occupation by Irrep:
              A 
    DOCC [     5 ]
    NA   [     5 ]
    NB   [     5 ]

  @DF-RKS Final Energy:   -56.52032252557144

   => Energetics <=

    Nuclear Repulsion Energy =             11.9475813113965259
    One-Electron Energy =                 -99.6876795566728333
    Two-Electron Energy =                  37.2628213260681989
    DFT Exchange-Correlation Energy =      -6.0430456063633349
    Empirical Dispersion Energy =           0.0000000000000000
    VV10 Nonlocal Energy =                  0.0000000000000000
    Total Energy =                        -56.5203225255714372

Computation Completed


Properties will be evaluated at   0.000000,   0.000000,   0.000000 [a0]

Properties computed using the SCF density matrix


 Multipole Moments:

 ------------------------------------------------------------------------------------
     Multipole            Electronic (a.u.)      Nuclear  (a.u.)        Total (a.u.)
 ------------------------------------------------------------------------------------

 L = 1.  Multiply by 2.5417464519 to convert [e a0] to [Debye]
 Dipole X            :         -0.0000172            0.0000153           -0.0000019
 Dipole Y            :         35.4806258          -36.0645264           -0.5839006
 Dipole Z            :          0.0000000            0.0000000            0.0000000
 Magnitude           :                                                    0.5839006

 ------------------------------------------------------------------------------------

*** tstop() called on cmpsrv002 at Fri Sep 20 11:26:37 2024
Module time:
	user time   =      13.02 seconds =       0.22 minutes
	system time =       0.30 seconds =       0.00 minutes
	total time  =          4 seconds =       0.07 minutes
Total time:
	user time   =      23.88 seconds =       0.40 minutes
	system time =       1.11 seconds =       0.02 minutes
	total time  =          7 seconds =       0.12 minutes

         ---------------------------------------------------------
               SAPT(DFT): Intermolecular Interaction Segment       

                   by Daniel G. A. Smith and Rob Parrish           
         ---------------------------------------------------------

  ==> Algorithm <==

   SAPT DFT Functional             PBE0
   Monomer A GRAC Shift        0.116251
   Monomer B GRAC Shift        0.113162
   Delta HF                       False
   JK Algorithm                      DF

  ==> Preparing SAPT Data Cache <== 

  ==> DiskDFJK: Density-Fitted J/K Matrices <==

    J tasked:                  Yes
    K tasked:                  Yes
    wK tasked:                  No
    OpenMP threads:              4
    Integrals threads:           4
    Memory [MiB]:             4947
    Algorithm:                Core
    Integral Cache:           SAVE
    Schwarz Cutoff:          1E-12
    Fitting Condition:       1E-10

   => Auxiliary Basis Set <=

  Basis Set: (THIS_BASIS AUX)
    Blend: DEF2-UNIVERSAL-JKFIT
    Number of shells: 87
    Number of basis functions: 277
    Number of Cartesian functions: 328
    Spherical Harmonics?: true
    Max angular momentum: 4


  ==> E10 Electostatics <== 

    Elst10,r                        -66.78999394 [mEh]

  ==> E10 Exchange <== 

    Exch10(S^2)                     118.47631554 [mEh]
    Exch10                          128.62921893 [mEh]

  ==> E20 Induction <== 

   => Uncoupled Induction <= 

    Ind20,u (A<-B)                  -28.26496064 [mEh]
    Ind20,u (A->B)                  -49.26804104 [mEh]
    Ind20,u                         -77.53300167 [mEh]
    Exch-Ind20,u (A<-B)              21.74461113 [mEh]
    Exch-Ind20,u (A->B)              23.48114285 [mEh]
    Exch-Ind20,u                     45.22575397 [mEh]
    Exch-Ind20,u (A<-B) (S^inf)      26.14114539 [mEh]
    Exch-Ind20,u (A->B) (S^inf)      28.96668363 [mEh]
    Exch-Ind20,u (S^inf)             55.10782902 [mEh]

   => Coupled Induction <= 

   ---------------------------------------------------
              SAPT Coupled Induction Solver           
   ---------------------------------------------------
    Maxiter             =          20
    Convergence         =   1.000E-06
   ---------------------------------------------------
     Iter       (A<-B)           (B->A)      Time [s]
   ---------------------------------------------------
    Guess    1.198886e-01     1.551112e-01          0
        1    3.019139e-02     5.594863e-02          1
        2    6.831096e-03     1.716544e-02          2
        3    1.925556e-03     1.505218e-03          3
        4    1.898085e-04     1.153831e-04          3
        5    1.439969e-05     8.937357e-06          4
        6    2.063518e-06     8.416272e-07*         5
        7    2.987184e-07*    8.416272e-07*         5
   ---------------------------------------------------

    Ind20,r (A<-B)                  -29.57045722 [mEh]
    Ind20,r (A->B)                  -51.53172641 [mEh]
    Ind20,r                         -81.10218363 [mEh]
    Exch-Ind20,r (A<-B)              23.03805468 [mEh]
    Exch-Ind20,r (A->B)              26.42758768 [mEh]
    Exch-Ind20,r                     49.46564236 [mEh]
    Exch-Ind20,r (A<-B) (S^inf)      27.71782960 [mEh]
    Exch-Ind20,r (A->B) (S^inf)      32.62937417 [mEh]
    Exch-Ind20,r (S^inf)             60.34720377 [mEh]
   => Loading Basis Set <=

    Name: (THIS_BASIS AUX)
    Role: RIFIT
    Keyword: DF_BASIS_MP2
    atoms 1, 4-6 entry H          line    23 file /home/vance/anaconda3/envs/p4env/share/psi4/basis/def2-qzvp-ri.gbs 
    atoms 2      entry CL         line  1113 file /home/vance/anaconda3/envs/p4env/share/psi4/basis/def2-qzvp-ri.gbs 
    atoms 3      entry N          line   337 file /home/vance/anaconda3/envs/p4env/share/psi4/basis/def2-qzvp-ri.gbs 



  ==> E20 Dispersion (CHF FDDS) <== 

   Legendre Points:          10
   Lambda Shift:          0.300
   Fxc Kernal:             ALDA
   (P|Fxc|Q) Thresh:  1.000e-06
  DFHelper Memory: AOs need 0.251 GiB; user supplied 5.960 GiB. 
  Using in-core AOs.

  ==> DFHelper <==
    NBF:                             247
    NAux:                            532
    Schwarz Cutoff:                1E-12
    Mask sparsity (%):                 4
    DFH Avail. Memory [GiB]:       5.960
    OpenMP threads:                    4
    Algorithm:                    DIRECT
    AO Core:                        True
    MO Core:                       False
    Hold Metric:                   False
    Metric Power:                  0.000
    Fitting Condition:             1E-12
    Q Shell Max:                      11


  DFHelper Memory: AOs need 0.261 GiB; user supplied 5.960 GiB. 
  Using in-core AOs.


   => Time Integration <= 

       Omega       Weight       Disp20,u         Disp20   time [s]
   2.269e+01    6.667e-02      8.291e-04      7.821e-04          0
   4.147e+00    1.495e-01      1.179e-02      1.073e-02          0
   1.572e+00    2.191e-01      3.030e-02      2.540e-02          0
   7.589e-01    2.693e-01      4.470e-02      3.335e-02          0
   4.049e-01    2.955e-01      4.559e-02      3.070e-02          1
   2.223e-01    2.955e-01      3.575e-02      2.278e-02          1
   1.186e-01    2.693e-01      2.416e-02      1.508e-02          1
   5.727e-02    2.191e-01      1.504e-02      9.324e-03          1
   2.170e-02    1.495e-01      8.429e-03      5.217e-03          1
   3.966e-03    6.667e-02      3.364e-03      2.082e-03          2

    Disp20,u                        -35.00637116 [mEh]
    Disp20                          -24.74128598 [mEh]

  ==> E20 Dispersion (MP2) <== 


    Disp20 (MP2)                    -34.85387629 [mEh]
    Exch-Disp20,u                     7.48914098 [mEh]
    Scaling Scheme                    FIXED
    Scaling Factor                    0.770
    Est. Exch-Disp20,r                5.76663855 [mEh]

   SAPT(DFT) Results
  ---------------------------------------------------------------------------------------------------------
    Electrostatics                  -66.78999394 [mEh]    -41.91135395 [kcal/mol]   -175.35710492 [kJ/mol]
      Elst1,r                       -66.78999394 [mEh]    -41.91135395 [kcal/mol]   -175.35710492 [kJ/mol]

    Exchange                        128.62921893 [mEh]     80.71605348 [kcal/mol]    337.71596776 [kJ/mol]
      Exch1                         128.62921893 [mEh]     80.71605348 [kcal/mol]    337.71596776 [kJ/mol]
      Exch1(S^2)                    118.47631554 [mEh]     74.34501042 [kcal/mol]    311.05952360 [kJ/mol]

    Induction                       -31.63654127 [mEh]    -19.85222936 [kcal/mol]    -83.06172765 [kJ/mol]
      Ind2,r                        -81.10218363 [mEh]    -50.89238857 [kcal/mol]   -212.93375377 [kJ/mol]
      Exch-Ind2,r                    49.46564236 [mEh]     31.04015921 [kcal/mol]    129.87202612 [kJ/mol]
      Induction (A<-B)               -6.53240253 [mEh]     -4.09914447 [kcal/mol]    -17.15082048 [kJ/mol]
      Induction (A->B)              -25.10413874 [mEh]    -15.75308489 [kcal/mol]    -65.91090717 [kJ/mol]

    Dispersion                      -18.97464742 [mEh]    -11.90677102 [kcal/mol]    -49.81792995 [kJ/mol]
      Disp2,r                       -24.74128598 [mEh]    -15.52539135 [kcal/mol]    -64.95823739 [kJ/mol]
      Disp2,u                       -34.85387629 [mEh]    -21.87113757 [kcal/mol]    -91.50883960 [kJ/mol]
      Est. Exch-Disp2,r               5.76663855 [mEh]      3.61862033 [kcal/mol]     15.14030744 [kJ/mol]
      Exch-Disp2,u                    7.48914098 [mEh]      4.69950692 [kcal/mol]     19.66273694 [kJ/mol]

    Total SAPT(DFT)                  11.22803630 [mEh]      7.04569915 [kcal/mol]     29.47920525 [kJ/mol]
  ---------------------------------------------------------------------------------------------------------

*** tstop() called on cmpsrv002 at Fri Sep 20 11:26:52 2024
Module time:
	user time   =      68.39 seconds =       1.14 minutes
	system time =       4.35 seconds =       0.07 minutes
	total time  =         19 seconds =       0.32 minutes
Total time:
	user time   =      79.25 seconds =       1.32 minutes
	system time =       5.16 seconds =       0.09 minutes
	total time  =         22 seconds =       0.37 minutes

    Psi4 stopped on: Friday, 20 September 2024 11:26AM
    Psi4 wall time for execution: 0:00:22.29

*** Psi4 exiting successfully. Buy a developer a beer!
