
    -----------------------------------------------------------------------
          Psi4: An Open-Source Ab Initio Electronic Structure Package
                               Psi4 1.9.1 release

                         Git: Rev {} zzzzzzz 


    D. G. A. Smith, L. A. Burns, A. C. Simmonett, R. M. Parrish,
    M. C. Schieber, R. Galvelis, P. Kraus, H. Kruse, R. Di Remigio,
    A. Alenaizan, A. M. James, S. Lehtola, J. P. Misiewicz, M. Scheurer,
    R. A. Shaw, J. B. Schriber, Y. Xie, Z. L. Glick, D. A. Sirianni,
    J. S. O'Brien, J. M. Waldrop, A. Kumar, E. G. Hohenstein,
    B. P. Pritchard, B. R. Brooks, H. F. Schaefer III, A. Yu. Sokolov,
    K. Patkowski, A. E. DePrince III, U. Bozkaya, R. A. King,
    F. A. Evangelista, J. M. Turney, T. D. Crawford, C. D. Sherrill,
    J. Chem. Phys. 152(18) 184108 (2020). https://doi.org/10.1063/5.0006002

                            Additional Code Authors
    E. T. Seidl, C. L. Janssen, E. F. Valeev, M. L. Leininger,
    J. F. Gonthier, R. M. Richard, H. R. McAlexander, M. Saitow, X. Wang,
    P. Verma, M. H. Lechner, A. Jiang, S. Behnle, A. G. Heide,
    M. F. Herbst, and D. L. Poole

             Previous Authors, Complete List of Code Contributors,
                       and Citations for Specific Modules
    https://github.com/psi4/psi4/blob/master/codemeta.json
    https://github.com/psi4/psi4/graphs/contributors
    http://psicode.org/psi4manual/master/introduction.html#citing-psifour

    -----------------------------------------------------------------------


    Psi4 started on: Thursday, 19 September 2024 01:57PM

    Process ID: 605175
    Host:       cmpsrv002
    PSIDATADIR: /home/vance/anaconda3/envs/p4env/share/psi4
    Memory:     500.0 MiB
    Threads:    4
    
  ==> Input File <==

--------------------------------------------------------------------------
#charge=0 charge_a=0 charge_b=0 selection_a=1-2 selection_b=3-6 scaling=1.05 benchmark_Eint=-9.769 benchmark_unit=kcal/mol group=XH-N
set_num_threads(4)
memory 8 GB
basis this_basis {
    assign    aug-cc-pVQZ
}

molecule {
     0 1
    --
     0 1
     H        0.00002       -0.93248        0.00000
    Br       -0.00001        0.58174        0.00000
    --
     0 1
     N        0.00003       -2.66090        0.00000
     H       -0.47435       -3.01337        0.82165
     H       -0.47435       -3.01337       -0.82165
     H        0.94878       -3.01337        0.00000
}

set {
    sapt_dft_functional     PBE0
    scf_type                DF
    freeze_core             true
    sapt_dft_grac_shift_a    0.106591
    sapt_dft_grac_shift_b    0.113162
    sapt_dft_do_hybrid      true
    do_ind_exch_sinf        true
    do_disp_exch_sinf       true
}

nrg = energy('sapt(DFT)')

eelst = psi4.variable('SAPT ELST ENERGY')
eexch = psi4.variable('SAPT EXCH ENERGY')
eind = psi4.variable('SAPT IND ENERGY')
edisp = psi4.variable('SAPT DISP ENERGY')
esapt = psi4.variable('SAPT TOTAL ENERGY')
eind20r = psi4.variable('SAPT IND20,R ENERGY')
eexind20r = psi4.variable('SAPT EXCH-IND20,R ENERGY')
eind20u = psi4.variable('SAPT IND20,U ENERGY')
eexind20u = psi4.variable('SAPT EXCH-IND20,U ENERGY')
edisp20 = psi4.variable('SAPT DISP20 ENERGY')
eexdisp20 = psi4.variable('SAPT EXCH-DISP20 ENERGY')
eexch10 = psi4.variable('SAPT EXCH10 ENERGY')
eexch10s2 = psi4.variable('SAPT EXCH10(S^2) ENERGY')
print('sapt elst energy =', eelst)
print('sapt total induction energy =', eind)
print('sapt total dispersion energy =', edisp)
print('sapt total energy =', esapt)
print('sapt ind20,r energy =', eind20r)
print('sapt exch-ind20,r energy =', eexind20r)
print('sapt ind20,u energy =', eind20u)
print('sapt exch-ind20,u energy =', eexind20u)
print('sapt disp20 (u or r?) energy =', edisp20)
print('sapt exch-disp20 (u or r?) energy =', eexdisp20)
print('sapt exch10 (u or r? which s?) energy =', eexch10)
print('sapt exch10 s^2 (u or r?) energy =', eexch10s2)
--------------------------------------------------------------------------
  Threads set to 4 by Python driver.

  Memory set to   7.451 GiB by Python driver.

Scratch directory: /scratch2/vance/psi4/

*** tstart() called on cmpsrv002
*** at Thu Sep 19 13:57:25 2024

  SAPT does not make use of molecular symmetry, further calculations in C1 point group.

         ---------------------------------------------------------
                            SAPT(DFT) Procedure                    

                           by Daniel G. A. Smith                   
         ---------------------------------------------------------

Warning! The default value of SAPT_DFT_EXCH_DISP_SCALE_SCHEME has changed from DISP to FIXED. Please be careful comparing results with earlier versions. 

  ==> Algorithm <==

   SAPT DFT Functional             PBE0
   Monomer A GRAC Shift        0.106591
   Monomer B GRAC Shift        0.113162
   Delta HF                        True
   JK Algorithm                      DF

   Required computations:
     HF  (Dimer)
     HF  (Monomer A)
     HF  (Monomer B)
     DFT (Monomer A)
     DFT (Monomer B)

   => Libint2 <=

    Primary   basis highest AM E, G, H:  6, 6, 3
    Auxiliary basis highest AM E, G, H:  7, 7, 4
    Onebody   basis highest AM E, G, H:  -, -, -
    Solid Harmonics ordering:            Gaussian

*** tstart() called on cmpsrv002
*** at Thu Sep 19 13:57:25 2024

   => Loading Basis Set <=

    Name: THIS_BASIS
    Role: ORBITAL
    Keyword: BASIS
    atoms 1, 4-6 entry H          line    40 file /home/vance/anaconda3/envs/p4env/share/psi4/basis/aug-cc-pvqz.gbs 
    atoms 2      entry BR         line  5448 file /home/vance/anaconda3/envs/p4env/share/psi4/basis/aug-cc-pvqz.gbs 
    atoms 3      entry N          line   363 file /home/vance/anaconda3/envs/p4env/share/psi4/basis/aug-cc-pvqz.gbs 


         ---------------------------------------------------------
                         SAPT(DFT): delta HF Dimer                 
         ---------------------------------------------------------
                                   SCF
               by Justin Turney, Rob Parrish, Andy Simmonett
                          and Daniel G. A. Smith
                              RHF Reference
                        4 Threads,   7629 MiB Core
         ---------------------------------------------------------

  ==> Geometry <==

    Molecular point group: c1
    Full point group: Cs

    Geometry (in Angstrom), charge = 0, multiplicity = 1:

       Center              X                  Y                   Z               Mass       
    ------------   -----------------  -----------------  -----------------  -----------------
         H            0.000022767418    -0.918024996978     0.000000000000     1.007825032230
         BR          -0.000007232582     0.596195003022     0.000000000000    78.918337600000
         N            0.000032767418    -2.646444996978     0.000000000000    14.003074004430
         H           -0.474347232582    -2.998914996978     0.821650000000     1.007825032230
         H           -0.474347232582    -2.998914996978    -0.821650000000     1.007825032230
         H            0.948782767418    -2.998914996978     0.000000000000     1.007825032230

  Running in c1 symmetry.

  Rotational constants: A =      6.19413  B =      0.10839  C =      0.10839 [cm^-1]
  Rotational constants: A = 185695.44926  B =   3249.48133  C =   3249.48095 [MHz]
  Nuclear repulsion =   81.940676800672406

  Charge       = 0
  Multiplicity = 1
  Electrons    = 46
  Nalpha       = 23
  Nbeta        = 23

  ==> Algorithm <==

  SCF Algorithm Type is DF.
  DIIS enabled.
  MOM disabled.
  Fractional occupation disabled.
  Guess Type is SAD.
  Energy threshold   = 1.00e-08
  Density threshold  = 1.00e-08
  Integral threshold = 1.00e-12

  ==> Primary Basis <==

  Basis Set: THIS_BASIS
    Blend: AUG-CC-PVQZ
    Number of shells: 101
    Number of basis functions: 357
    Number of Cartesian functions: 444
    Spherical Harmonics?: true
    Max angular momentum: 4

   => Loading Basis Set <=

    Name: (THIS_BASIS AUX)
    Role: JKFIT
    Keyword: DF_BASIS_SCF
    atoms 1, 4-6 entry H          line    70 file /home/vance/anaconda3/envs/p4env/share/psi4/basis/aug-cc-pvqz-jkfit.gbs 
    atoms 2      entry BR         line  1612 file /home/vance/anaconda3/envs/p4env/share/psi4/basis/aug-cc-pvqz-jkfit.gbs 
    atoms 3      entry N          line   248 file /home/vance/anaconda3/envs/p4env/share/psi4/basis/aug-cc-pvqz-jkfit.gbs 

  ==> Integral Setup <==

  ==> DiskDFJK: Density-Fitted J/K Matrices <==

    J tasked:                  Yes
    K tasked:                  Yes
    wK tasked:                  No
    OpenMP threads:              4
    Integrals threads:           4
    Memory [MiB]:             5722
    Algorithm:                Core
    Integral Cache:           SAVE
    Schwarz Cutoff:          1E-12
    Fitting Condition:       1E-10

   => Auxiliary Basis Set <=

  Basis Set: (THIS_BASIS AUX)
    Blend: AUG-CC-PVQZ-JKFIT
    Number of shells: 166
    Number of basis functions: 716
    Number of Cartesian functions: 973
    Spherical Harmonics?: true
    Max angular momentum: 5

  Minimum eigenvalue in the overlap matrix is 1.1510460948E-05.
  Reciprocal condition number of the overlap matrix is 9.6311367710E-07.
    Using symmetric orthogonalization.

  ==> Pre-Iterations <==

  SCF Guess: Superposition of Atomic Densities via on-the-fly atomic UHF (no occupation information).

   -------------------------
    Irrep   Nso     Nmo    
   -------------------------
     A        357     357 
   -------------------------
    Total     357     357
   -------------------------

  ==> Iterations <==

                           Total Energy        Delta E     RMS |[F,P]|

   @DF-RHF iter SAD: -2626.95681230010359   -2.62696e+03   0.00000e+00 
   @DF-RHF iter   1: -2628.97320326736326   -2.01639e+00   3.67389e-03 ADIIS/DIIS
   @DF-RHF iter   2: -2629.20307159678669   -2.29868e-01   2.04385e-03 ADIIS/DIIS
   @DF-RHF iter   3: -2629.27855373912416   -7.54821e-02   8.41970e-05 DIIS
   @DF-RHF iter   4: -2629.27947556703657   -9.21828e-04   2.34632e-05 DIIS
   @DF-RHF iter   5: -2629.27956042199730   -8.48550e-05   6.06157e-06 DIIS
   @DF-RHF iter   6: -2629.27956734678082   -6.92478e-06   1.53660e-06 DIIS
   @DF-RHF iter   7: -2629.27956777849977   -4.31719e-07   6.50077e-07 DIIS
   @DF-RHF iter   8: -2629.27956783286027   -5.43605e-08   1.31161e-07 DIIS
   @DF-RHF iter   9: -2629.27956783523632   -2.37605e-09   4.08616e-08 DIIS
   @DF-RHF iter  10: -2629.27956783540503   -1.68711e-10   6.28965e-09 DIIS
  Energy and wave function converged.


  ==> Post-Iterations <==

    Orbital Energies [Eh]
    ---------------------

    Doubly Occupied:                                                      

       1A   -489.983009     2A    -65.123660     3A    -58.478726  
       4A    -58.477914     5A    -58.477914     6A    -15.589890  
       7A     -9.796784     8A     -7.407016     9A     -7.402691  
      10A     -7.402691    11A     -3.150036    12A     -3.147474  
      13A     -3.147474    14A     -3.142063    15A     -3.142063  
      16A     -1.193466    17A     -0.976235    18A     -0.681572  
      19A     -0.681570    20A     -0.576698    21A     -0.431459  
      22A     -0.389933    23A     -0.389933  

    Virtual:                                                              

      24A      0.015934    25A      0.037470    26A      0.037470  
      27A      0.048643    28A      0.088270    29A      0.097347  
      30A      0.097347    31A      0.107717    32A      0.125992  
      33A      0.125992    34A      0.136998    35A      0.163522  
      36A      0.164132    37A      0.164132    38A      0.188588  
      39A      0.188588    40A      0.221943    41A      0.248975  
      42A      0.248975    43A      0.263984    44A      0.269556  
      45A      0.292262    46A      0.292262    47A      0.304205  
      48A      0.304205    49A      0.306741    50A      0.323534  
      51A      0.350368    52A      0.350369    53A      0.361718  
      54A      0.369677    55A      0.369678    56A      0.383496  
      57A      0.407000    58A      0.407001    59A      0.416468  
      60A      0.430239    61A      0.430240    62A      0.443389  
      63A      0.505072    64A      0.505075    65A      0.535262  
      66A      0.535266    67A      0.575015    68A      0.594353  
      69A      0.594353    70A      0.608361    71A      0.608363  
      72A      0.624905    73A      0.660546    74A      0.686251  
      75A      0.686266    76A      0.693058    77A      0.693060  
      78A      0.708135    79A      0.715558    80A      0.715558  
      81A      0.735331    82A      0.740695    83A      0.747204  
      84A      0.747204    85A      0.763890    86A      0.784422  
      87A      0.784424    88A      0.845162    89A      0.845162  
      90A      0.864292    91A      0.864295    92A      0.868169  
      93A      0.892948    94A      0.892948    95A      0.896248  
      96A      0.917308    97A      0.939936    98A      0.939936  
      99A      0.965454   100A      1.004256   101A      1.004258  
     102A      1.020955   103A      1.020957   104A      1.081324  
     105A      1.146283   106A      1.146968   107A      1.146969  
     108A      1.207226   109A      1.217887   110A      1.217889  
     111A      1.304523   112A      1.304523   113A      1.333926  
     114A      1.369476   115A      1.392882   116A      1.392882  
     117A      1.410729   118A      1.410730   119A      1.418808  
     120A      1.431045   121A      1.475767   122A      1.488035  
     123A      1.488035   124A      1.514124   125A      1.520182  
     126A      1.520183   127A      1.533440   128A      1.533442  
     129A      1.547049   130A      1.547049   131A      1.555195  
     132A      1.558506   133A      1.607652   134A      1.607655  
     135A      1.627623   136A      1.637270   137A      1.648252  
     138A      1.656192   139A      1.656192   140A      1.696093  
     141A      1.696094   142A      1.728378   143A      1.728381  
     144A      1.790869   145A      1.803898   146A      1.825102  
     147A      1.839542   148A      1.839544   149A      1.859154  
     150A      1.859155   151A      1.908275   152A      1.912272  
     153A      1.912275   154A      1.971247   155A      1.971250  
     156A      1.988033   157A      1.990157   158A      2.007771  
     159A      2.007773   160A      2.012514   161A      2.054350  
     162A      2.054355   163A      2.111905   164A      2.130641  
     165A      2.132254   166A      2.132254   167A      2.165780  
     168A      2.168742   169A      2.168743   170A      2.276464  
     171A      2.340081   172A      2.358350   173A      2.358352  
     174A      2.407068   175A      2.419345   176A      2.419349  
     177A      2.440803   178A      2.501122   179A      2.549348  
     180A      2.549349   181A      2.591455   182A      2.591457  
     183A      2.656865   184A      2.656867   185A      2.699754  
     186A      2.866691   187A      2.866693   188A      2.890564  
     189A      2.895842   190A      2.911172   191A      2.911175  
     192A      2.982399   193A      2.982402   194A      3.043117  
     195A      3.043119   196A      3.045324   197A      3.082541  
     198A      3.116740   199A      3.116743   200A      3.127108  
     201A      3.132951   202A      3.225765   203A      3.225768  
     204A      3.298665   205A      3.298667   206A      3.336600  
     207A      3.405662   208A      3.405666   209A      3.450422  
     210A      3.451918   211A      3.479295   212A      3.479297  
     213A      3.506818   214A      3.536635   215A      3.536636  
     216A      3.558570   217A      3.581858   218A      3.581863  
     219A      3.650230   220A      3.706754   221A      3.706754  
     222A      3.711519   223A      3.717423   224A      3.720433  
     225A      3.720435   226A      3.725170   227A      3.761882  
     228A      3.761885   229A      3.852378   230A      3.852378  
     231A      3.983964   232A      4.007875   233A      4.007878  
     234A      4.096775   235A      4.126092   236A      4.126093  
     237A      4.153515   238A      4.162338   239A      4.162339  
     240A      4.189601   241A      4.192172   242A      4.192174  
     243A      4.252165   244A      4.252172   245A      4.302611  
     246A      4.431402   247A      4.431409   248A      4.431912  
     249A      4.574390   250A      4.574397   251A      4.579079  
     252A      4.817133   253A      4.817137   254A      4.817350  
     255A      4.967162   256A      4.967170   257A      5.090203  
     258A      5.126068   259A      5.126077   260A      5.241857  
     261A      5.241860   262A      5.333418   263A      5.407180  
     264A      5.407181   265A      5.437619   266A      5.557669  
     267A      5.794606   268A      6.685789   269A      6.697198  
     270A      6.833023   271A      6.884405   272A      6.884406  
     273A      6.965635   274A      6.965646   275A      7.063769  
     276A      7.063769   277A      7.272526   278A      7.272529  
     279A      7.313847   280A      7.325736   281A      7.424422  
     282A      7.424434   283A      7.610802   284A      7.652290  
     285A      7.663481   286A      7.756540   287A      7.756542  
     288A      7.832873   289A      7.832882   290A      8.018032  
     291A      8.063914   292A      8.063918   293A      8.153797  
     294A      8.153798   295A      8.316431   296A      8.397377  
     297A      8.397392   298A      8.526915   299A      8.526917  
     300A      8.553709   301A      8.639999   302A      8.640000  
     303A      8.646112   304A      8.766361   305A      8.766366  
     306A      8.876992   307A      8.876997   308A      8.898025  
     309A      8.898028   310A      8.931480   311A      8.941933  
     312A      8.970221   313A      9.013885   314A      9.055846  
     315A      9.113571   316A      9.113578   317A      9.293191  
     318A      9.293192   319A      9.416116   320A      9.416117  
     321A      9.557447   322A      9.581885   323A      9.581892  
     324A      9.689630   325A      9.689633   326A      9.699955  
     327A      9.752333   328A      9.921108   329A      9.921115  
     330A      9.933441   331A     10.113332   332A     10.113343  
     333A     10.272296   334A     10.390639   335A     10.465992  
     336A     10.465997   337A     10.548094   338A     10.548095  
     339A     10.836954   340A     10.950996   341A     11.009208  
     342A     11.009218   343A     11.161712   344A     11.925425  
     345A     12.174272   346A     12.174308   347A     12.286469  
     348A     12.365527   349A     12.365579   350A     13.028975  
     351A     13.131629   352A     13.131657   353A     14.953700  
     354A     15.072408   355A     15.072469   356A     15.192318  
     357A     36.871382  

    Final Occupation by Irrep:
              A 
    DOCC [    23 ]
    NA   [    23 ]
    NB   [    23 ]

  @DF-RHF Final Energy: -2629.27956783540503

   => Energetics <=

    Nuclear Repulsion Energy =             81.9406768006724064
    One-Electron Energy =               -3824.0599514640402958
    Two-Electron Energy =                1112.8397068279630275
    Total Energy =                      -2629.2795678354050324

Computation Completed


Properties will be evaluated at   0.000000,   0.000000,   0.000000 [a0]

Properties computed using the SCF density matrix


 Multipole Moments:

 ------------------------------------------------------------------------------------
     Multipole            Electronic (a.u.)      Nuclear  (a.u.)        Total (a.u.)
 ------------------------------------------------------------------------------------

 L = 1.  Multiply by 2.5417464519 to convert [e a0] to [Debye]
 Dipole X            :         -0.0001475            0.0001650            0.0000174
 Dipole Y            :         12.4062052          -14.3110091           -1.9048038
 Dipole Z            :          0.0000000            0.0000000            0.0000000
 Magnitude           :                                                    1.9048038

 ------------------------------------------------------------------------------------

*** tstop() called on cmpsrv002 at Thu Sep 19 13:58:44 2024
Module time:
	user time   =      42.18 seconds =       0.70 minutes
	system time =       6.20 seconds =       0.10 minutes
	total time  =         79 seconds =       1.32 minutes
Total time:
	user time   =      42.19 seconds =       0.70 minutes
	system time =       6.20 seconds =       0.10 minutes
	total time  =         79 seconds =       1.32 minutes
   => Libint2 <=

    Primary   basis highest AM E, G, H:  6, 6, 3
    Auxiliary basis highest AM E, G, H:  7, 7, 4
    Onebody   basis highest AM E, G, H:  -, -, -
    Solid Harmonics ordering:            Gaussian

*** tstart() called on cmpsrv002
*** at Thu Sep 19 13:58:44 2024

   => Loading Basis Set <=

    Name: THIS_BASIS
    Role: ORBITAL
    Keyword: BASIS
    atoms 1, 4-6 entry H          line    40 file /home/vance/anaconda3/envs/p4env/share/psi4/basis/aug-cc-pvqz.gbs 
    atoms 2      entry BR         line  5448 file /home/vance/anaconda3/envs/p4env/share/psi4/basis/aug-cc-pvqz.gbs 
    atoms 3      entry N          line   363 file /home/vance/anaconda3/envs/p4env/share/psi4/basis/aug-cc-pvqz.gbs 


         ---------------------------------------------------------
                       SAPT(DFT): delta HF Monomer A               
         ---------------------------------------------------------
                                   SCF
               by Justin Turney, Rob Parrish, Andy Simmonett
                          and Daniel G. A. Smith
                              RHF Reference
                        4 Threads,   7629 MiB Core
         ---------------------------------------------------------

  ==> Geometry <==

    Molecular point group: c1
    Full point group: Cs

    Geometry (in Angstrom), charge = 0, multiplicity = 1:

       Center              X                  Y                   Z               Mass       
    ------------   -----------------  -----------------  -----------------  -----------------
         H            0.000022767418    -0.918024996978     0.000000000000     1.007825032230
         BR          -0.000007232582     0.596195003022     0.000000000000    78.918337600000
      Gh(N)           0.000032767418    -2.646444996978     0.000000000000    14.003074004430
      Gh(H)          -0.474347232582    -2.998914996978     0.821650000000     1.007825032230
      Gh(H)          -0.474347232582    -2.998914996978    -0.821650000000     1.007825032230
      Gh(H)           0.948782767418    -2.998914996978     0.000000000000     1.007825032230

  Running in c1 symmetry.

  Rotational constants: A =      6.19413  B =      0.10839  C =      0.10839 [cm^-1]
  Rotational constants: A = 185695.44926  B =   3249.48133  C =   3249.48095 [MHz]
  Nuclear repulsion =   12.231513498576831

  Charge       = 0
  Multiplicity = 1
  Electrons    = 36
  Nalpha       = 18
  Nbeta        = 18

  ==> Algorithm <==

  SCF Algorithm Type is DF.
  DIIS enabled.
  MOM disabled.
  Fractional occupation disabled.
  Guess Type is SAD.
  Energy threshold   = 1.00e-08
  Density threshold  = 1.00e-08
  Integral threshold = 1.00e-12

  ==> Primary Basis <==

  Basis Set: THIS_BASIS
    Blend: AUG-CC-PVQZ
    Number of shells: 101
    Number of basis functions: 357
    Number of Cartesian functions: 444
    Spherical Harmonics?: true
    Max angular momentum: 4

   => Loading Basis Set <=

    Name: (THIS_BASIS AUX)
    Role: JKFIT
    Keyword: DF_BASIS_SCF
    atoms 1, 4-6 entry H          line    70 file /home/vance/anaconda3/envs/p4env/share/psi4/basis/aug-cc-pvqz-jkfit.gbs 
    atoms 2      entry BR         line  1612 file /home/vance/anaconda3/envs/p4env/share/psi4/basis/aug-cc-pvqz-jkfit.gbs 
    atoms 3      entry N          line   248 file /home/vance/anaconda3/envs/p4env/share/psi4/basis/aug-cc-pvqz-jkfit.gbs 

  ==> Integral Setup <==

  ==> DiskDFJK: Density-Fitted J/K Matrices <==

    J tasked:                  Yes
    K tasked:                  Yes
    wK tasked:                  No
    OpenMP threads:              4
    Integrals threads:           4
    Memory [MiB]:             5722
    Algorithm:                Core
    Integral Cache:           SAVE
    Schwarz Cutoff:          1E-12
    Fitting Condition:       1E-10

   => Auxiliary Basis Set <=

  Basis Set: (THIS_BASIS AUX)
    Blend: AUG-CC-PVQZ-JKFIT
    Number of shells: 166
    Number of basis functions: 716
    Number of Cartesian functions: 973
    Spherical Harmonics?: true
    Max angular momentum: 5

  Minimum eigenvalue in the overlap matrix is 1.1510460948E-05.
  Reciprocal condition number of the overlap matrix is 9.6311367710E-07.
    Using symmetric orthogonalization.

  ==> Pre-Iterations <==

  SCF Guess: Superposition of Atomic Densities via on-the-fly atomic UHF (no occupation information).

   -------------------------
    Irrep   Nso     Nmo    
   -------------------------
     A        357     357 
   -------------------------
    Total     357     357
   -------------------------

  ==> Iterations <==

                           Total Energy        Delta E     RMS |[F,P]|

   @DF-RHF iter SAD: -2571.14384254008382   -2.57114e+03   0.00000e+00 
   @DF-RHF iter   1: -2572.80817857122383   -1.66434e+00   3.47998e-03 ADIIS/DIIS
   @DF-RHF iter   2: -2572.98079897668367   -1.72620e-01   1.96705e-03 ADIIS/DIIS
   @DF-RHF iter   3: -2573.04615719937465   -6.53582e-02   5.46873e-05 DIIS
   @DF-RHF iter   4: -2573.04662378087141   -4.66581e-04   1.88086e-05 DIIS
   @DF-RHF iter   5: -2573.04669716781063   -7.33869e-05   4.77290e-06 DIIS
   @DF-RHF iter   6: -2573.04670148050536   -4.31269e-06   8.36584e-07 DIIS
   @DF-RHF iter   7: -2573.04670156498059   -8.44752e-08   2.06690e-07 DIIS
   @DF-RHF iter   8: -2573.04670157202872   -7.04813e-09   2.86786e-08 DIIS
   @DF-RHF iter   9: -2573.04670157215833   -1.29603e-10   4.43306e-09 DIIS
  Energy and wave function converged.


  ==> Post-Iterations <==

    Orbital Energies [Eh]
    ---------------------

    Doubly Occupied:                                                      

       1A   -490.039742     2A    -65.179487     3A    -58.534967  
       4A    -58.533512     5A    -58.533512     6A     -9.851932  
       7A     -7.463421     8A     -7.456726     9A     -7.456726  
      10A     -3.207250    11A     -3.203531    12A     -3.203531  
      13A     -3.194911    14A     -3.194911    15A     -1.020563  
      16A     -0.564752    17A     -0.433628    18A     -0.433628  

    Virtual:                                                              

      19A      0.018790    20A      0.041997    21A      0.042527  
      22A      0.042527    23A      0.076504    24A      0.081546  
      25A      0.088806    26A      0.088806    27A      0.122058  
      28A      0.122058    29A      0.125661    30A      0.149499  
      31A      0.171804    32A      0.180433    33A      0.180433  
      34A      0.204535    35A      0.204535    36A      0.234815  
      37A      0.234815    38A      0.258987    39A      0.276261  
      40A      0.277889    41A      0.277890    42A      0.284673  
      43A      0.295020    44A      0.295020    45A      0.295461  
      46A      0.340330    47A      0.340331    48A      0.345189  
      49A      0.377409    50A      0.395885    51A      0.395887  
      52A      0.405811    53A      0.407181    54A      0.407181  
      55A      0.453662    56A      0.453663    57A      0.458302  
      58A      0.536172    59A      0.545369    60A      0.545371  
      61A      0.569413    62A      0.569414    63A      0.574475  
      64A      0.589035    65A      0.589036    66A      0.616421  
      67A      0.616424    68A      0.636907    69A      0.637898  
      70A      0.637898    71A      0.648891    72A      0.660196  
      73A      0.692788    74A      0.692788    75A      0.712828  
      76A      0.728673    77A      0.757006    78A      0.757232  
      79A      0.770068    80A      0.770069    81A      0.836447  
      82A      0.836447    83A      0.843264    84A      0.865946  
      85A      0.865947    86A      0.872885    87A      0.872888  
      88A      0.887975    89A      0.920269    90A      0.952152  
      91A      0.956477    92A      0.956478    93A      0.978534  
      94A      0.978534    95A      1.055707    96A      1.055708  
      97A      1.059993    98A      1.083004    99A      1.104545  
     100A      1.104546   101A      1.128404   102A      1.128404  
     103A      1.142601   104A      1.243954   105A      1.252841  
     106A      1.252842   107A      1.274983   108A      1.274984  
     109A      1.371289   110A      1.371289   111A      1.378619  
     112A      1.384264   113A      1.413984   114A      1.413985  
     115A      1.452807   116A      1.452808   117A      1.468911  
     118A      1.483055   119A      1.500870   120A      1.511171  
     121A      1.514889   122A      1.514889   123A      1.542976  
     124A      1.542977   125A      1.569531   126A      1.603108  
     127A      1.605731   128A      1.605734   129A      1.608310  
     130A      1.619252   131A      1.644823   132A      1.644825  
     133A      1.658180   134A      1.658180   135A      1.740738  
     136A      1.768830   137A      1.768831   138A      1.827896  
     139A      1.837649   140A      1.846864   141A      1.846864  
     142A      1.861831   143A      1.861834   144A      1.882459  
     145A      1.909635   146A      1.909637   147A      1.945107  
     148A      1.974616   149A      1.974621   150A      2.028219  
     151A      2.028223   152A      2.031865   153A      2.036378  
     154A      2.069910   155A      2.078553   156A      2.078555  
     157A      2.125708   158A      2.125710   159A      2.153532  
     160A      2.160761   161A      2.180183   162A      2.180184  
     163A      2.202190   164A      2.214408   165A      2.214410  
     166A      2.248523   167A      2.329498   168A      2.347348  
     169A      2.347350   170A      2.391242   171A      2.391243  
     172A      2.425774   173A      2.478398   174A      2.557837  
     175A      2.557841   176A      2.609448   177A      2.609451  
     178A      2.682968   179A      2.682971   180A      2.692745  
     181A      2.772291   182A      2.833677   183A      2.851129  
     184A      2.851132   185A      3.073884   186A      3.073886  
     187A      3.085330   188A      3.102983   189A      3.102984  
     190A      3.200239   191A      3.225432   192A      3.239964  
     193A      3.239965   194A      3.286679   195A      3.286680  
     196A      3.289145   197A      3.311698   198A      3.355514  
     199A      3.408057   200A      3.409763   201A      3.413853  
     202A      3.413854   203A      3.424745   204A      3.424746  
     205A      3.462495   206A      3.473463   207A      3.473464  
     208A      3.513519   209A      3.513520   210A      3.616326  
     211A      3.616332   212A      3.665978   213A      3.666128  
     214A      3.666128   215A      3.668380   216A      3.707378  
     217A      3.716996   218A      3.716997   219A      3.801650  
     220A      3.806577   221A      3.806577   222A      3.814197  
     223A      3.885068   224A      3.885068   225A      3.905768  
     226A      3.905769   227A      4.023978   228A      4.023978  
     229A      4.064809   230A      4.091089   231A      4.091091  
     232A      4.160524   233A      4.188772   234A      4.188775  
     235A      4.262437   236A      4.277266   237A      4.277268  
     238A      4.373358   239A      4.404790   240A      4.404793  
     241A      4.458022   242A      4.524711   243A      4.557968  
     244A      4.557974   245A      4.593606   246A      4.612224  
     247A      4.612233   248A      4.828449   249A      4.828454  
     250A      5.020516   251A      5.175040   252A      5.175046  
     253A      5.278697   254A      5.434187   255A      5.506351  
     256A      5.506361   257A      5.683042   258A      5.800390  
     259A      5.800398   260A      5.855811   261A      5.956195  
     262A      5.956204   263A      6.135241   264A      6.479721  
     265A      6.573810   266A      6.573827   267A      6.656768  
     268A      6.668453   269A      7.029481   270A      7.029482  
     271A      7.106764   272A      7.124486   273A      7.124489  
     274A      7.273172   275A      7.273181   276A      7.431747  
     277A      7.431749   278A      7.568704   279A      7.774510  
     280A      7.780463   281A      8.188295   282A      8.237690  
     283A      8.237692   284A      8.280935   285A      8.280940  
     286A      8.288349   287A      8.300419   288A      8.300428  
     289A      8.452359   290A      8.500545   291A      8.500547  
     292A      8.596644   293A      8.596645   294A      8.702359  
     295A      8.702363   296A      8.765779   297A      8.765781  
     298A      8.881562   299A      8.966915   300A      9.112765  
     301A      9.112767   302A      9.186408   303A      9.243420  
     304A      9.243431   305A      9.280975   306A      9.326204  
     307A      9.326208   308A      9.512815   309A      9.517371  
     310A      9.517378   311A      9.586570   312A      9.598788  
     313A      9.685047   314A      9.685053   315A      9.826096  
     316A     10.003135   317A     10.103135   318A     10.103142  
     319A     10.199912   320A     10.199927   321A     10.333997  
     322A     10.464165   323A     10.569268   324A     10.569282  
     325A     10.752167   326A     10.770766   327A     10.770772  
     328A     10.884255   329A     10.884265   330A     10.917592  
     331A     11.392873   332A     11.392889   333A     11.528597  
     334A     12.073405   335A     12.073417   336A     12.138169  
     337A     12.493127   338A     12.560154   339A     12.560191  
     340A     13.171220   341A     13.171239   342A     13.384462  
     343A     14.024000   344A     14.267496   345A     14.494361  
     346A     14.494410   347A     14.722435   348A     14.722440  
     349A     15.061168   350A     16.064374   351A     16.064396  
     352A     16.463509   353A     18.451051   354A     20.114614  
     355A     21.886469   356A     21.886552   357A     96.568853  

    Final Occupation by Irrep:
              A 
    DOCC [    18 ]
    NA   [    18 ]
    NB   [    18 ]

  @DF-RHF Final Energy: -2573.04670157215833

   => Energetics <=

    Nuclear Repulsion Energy =             12.2315134985768310
    One-Electron Energy =               -3607.5429786127247098
    Two-Electron Energy =                1022.2647635419893959
    Total Energy =                      -2573.0467015721583266

Computation Completed


Properties will be evaluated at   0.000000,   0.000000,   0.000000 [a0]

Properties computed using the SCF density matrix


 Multipole Moments:

 ------------------------------------------------------------------------------------
     Multipole            Electronic (a.u.)      Nuclear  (a.u.)        Total (a.u.)
 ------------------------------------------------------------------------------------

 L = 1.  Multiply by 2.5417464519 to convert [e a0] to [Debye]
 Dipole X            :          0.0004432           -0.0004353            0.0000079
 Dipole Y            :        -38.0960006           37.6977687           -0.3982319
 Dipole Z            :          0.0000000            0.0000000            0.0000000
 Magnitude           :                                                    0.3982319

 ------------------------------------------------------------------------------------

*** tstop() called on cmpsrv002 at Thu Sep 19 13:59:55 2024
Module time:
	user time   =      45.24 seconds =       0.75 minutes
	system time =       5.66 seconds =       0.09 minutes
	total time  =         71 seconds =       1.18 minutes
Total time:
	user time   =      87.45 seconds =       1.46 minutes
	system time =      11.87 seconds =       0.20 minutes
	total time  =        150 seconds =       2.50 minutes
   => Libint2 <=

    Primary   basis highest AM E, G, H:  6, 6, 3
    Auxiliary basis highest AM E, G, H:  7, 7, 4
    Onebody   basis highest AM E, G, H:  -, -, -
    Solid Harmonics ordering:            Gaussian

*** tstart() called on cmpsrv002
*** at Thu Sep 19 13:59:55 2024

   => Loading Basis Set <=

    Name: THIS_BASIS
    Role: ORBITAL
    Keyword: BASIS
    atoms 1, 4-6 entry H          line    40 file /home/vance/anaconda3/envs/p4env/share/psi4/basis/aug-cc-pvqz.gbs 
    atoms 2      entry BR         line  5448 file /home/vance/anaconda3/envs/p4env/share/psi4/basis/aug-cc-pvqz.gbs 
    atoms 3      entry N          line   363 file /home/vance/anaconda3/envs/p4env/share/psi4/basis/aug-cc-pvqz.gbs 


         ---------------------------------------------------------
                       SAPT(DFT): delta HF Monomer B               
         ---------------------------------------------------------
                                   SCF
               by Justin Turney, Rob Parrish, Andy Simmonett
                          and Daniel G. A. Smith
                              RHF Reference
                        4 Threads,   7629 MiB Core
         ---------------------------------------------------------

  ==> Geometry <==

    Molecular point group: c1
    Full point group: Cs

    Geometry (in Angstrom), charge = 0, multiplicity = 1:

       Center              X                  Y                   Z               Mass       
    ------------   -----------------  -----------------  -----------------  -----------------
      Gh(H)           0.000022767418    -0.918024996978     0.000000000000     1.007825032230
      Gh(BR)         -0.000007232582     0.596195003022     0.000000000000    78.918337600000
         N            0.000032767418    -2.646444996978     0.000000000000    14.003074004430
         H           -0.474347232582    -2.998914996978     0.821650000000     1.007825032230
         H           -0.474347232582    -2.998914996978    -0.821650000000     1.007825032230
         H            0.948782767418    -2.998914996978     0.000000000000     1.007825032230

  Running in c1 symmetry.

  Rotational constants: A =      6.19413  B =      0.10839  C =      0.10839 [cm^-1]
  Rotational constants: A = 185695.44926  B =   3249.48133  C =   3249.48095 [MHz]
  Nuclear repulsion =   11.945783476959878

  Charge       = 0
  Multiplicity = 1
  Electrons    = 10
  Nalpha       = 5
  Nbeta        = 5

  ==> Algorithm <==

  SCF Algorithm Type is DF.
  DIIS enabled.
  MOM disabled.
  Fractional occupation disabled.
  Guess Type is SAD.
  Energy threshold   = 1.00e-08
  Density threshold  = 1.00e-08
  Integral threshold = 1.00e-12

  ==> Primary Basis <==

  Basis Set: THIS_BASIS
    Blend: AUG-CC-PVQZ
    Number of shells: 101
    Number of basis functions: 357
    Number of Cartesian functions: 444
    Spherical Harmonics?: true
    Max angular momentum: 4

   => Loading Basis Set <=

    Name: (THIS_BASIS AUX)
    Role: JKFIT
    Keyword: DF_BASIS_SCF
    atoms 1, 4-6 entry H          line    70 file /home/vance/anaconda3/envs/p4env/share/psi4/basis/aug-cc-pvqz-jkfit.gbs 
    atoms 2      entry BR         line  1612 file /home/vance/anaconda3/envs/p4env/share/psi4/basis/aug-cc-pvqz-jkfit.gbs 
    atoms 3      entry N          line   248 file /home/vance/anaconda3/envs/p4env/share/psi4/basis/aug-cc-pvqz-jkfit.gbs 

  ==> Integral Setup <==

  ==> DiskDFJK: Density-Fitted J/K Matrices <==

    J tasked:                  Yes
    K tasked:                  Yes
    wK tasked:                  No
    OpenMP threads:              4
    Integrals threads:           4
    Memory [MiB]:             5722
    Algorithm:                Core
    Integral Cache:           SAVE
    Schwarz Cutoff:          1E-12
    Fitting Condition:       1E-10

   => Auxiliary Basis Set <=

  Basis Set: (THIS_BASIS AUX)
    Blend: AUG-CC-PVQZ-JKFIT
    Number of shells: 166
    Number of basis functions: 716
    Number of Cartesian functions: 973
    Spherical Harmonics?: true
    Max angular momentum: 5

  Minimum eigenvalue in the overlap matrix is 1.1510460948E-05.
  Reciprocal condition number of the overlap matrix is 9.6311367710E-07.
    Using symmetric orthogonalization.

  ==> Pre-Iterations <==

  SCF Guess: Superposition of Atomic Densities via on-the-fly atomic UHF (no occupation information).

   -------------------------
    Irrep   Nso     Nmo    
   -------------------------
     A        357     357 
   -------------------------
    Total     357     357
   -------------------------

  ==> Iterations <==

                           Total Energy        Delta E     RMS |[F,P]|

   @DF-RHF iter SAD:   -55.64105543792106   -5.56411e+01   0.00000e+00 
   @DF-RHF iter   1:   -56.12631879445266   -4.85263e-01   1.30906e-03 ADIIS/DIIS
   @DF-RHF iter   2:   -56.19507268622521   -6.87539e-02   7.58677e-04 ADIIS/DIIS
   @DF-RHF iter   3:   -56.22329330386723   -2.82206e-02   6.88919e-05 DIIS
   @DF-RHF iter   4:   -56.22392885950244   -6.35556e-04   1.28526e-05 DIIS
   @DF-RHF iter   5:   -56.22394996831879   -2.11088e-05   2.38283e-06 DIIS
   @DF-RHF iter   6:   -56.22395120468406   -1.23637e-06   6.32087e-07 DIIS
   @DF-RHF iter   7:   -56.22395129181994   -8.71359e-08   1.40175e-07 DIIS
   @DF-RHF iter   8:   -56.22395129634693   -4.52699e-09   2.09415e-08 DIIS
   @DF-RHF iter   9:   -56.22395129644764   -1.00719e-10   5.65532e-09 DIIS
  Energy and wave function converged.


  ==> Post-Iterations <==

    Orbital Energies [Eh]
    ---------------------

    Doubly Occupied:                                                      

       1A    -15.538874     2A     -1.139034     3A     -0.631521  
       4A     -0.631519     5A     -0.424225  

    Virtual:                                                              

       6A      0.024856     7A      0.040110     8A      0.043076  
       9A      0.043076    10A      0.081012    11A      0.081012  
      12A      0.081561    13A      0.111661    14A      0.135177  
      15A      0.136943    16A      0.136943    17A      0.146691  
      18A      0.180479    19A      0.180479    20A      0.206447  
      21A      0.206447    22A      0.245984    23A      0.261834  
      24A      0.261834    25A      0.262633    26A      0.266263  
      27A      0.266263    28A      0.282974    29A      0.284433  
      30A      0.306603    31A      0.306603    32A      0.331732  
      33A      0.338418    34A      0.338418    35A      0.347695  
      36A      0.369646    37A      0.386631    38A      0.386633  
      39A      0.410668    40A      0.410669    41A      0.455133  
      42A      0.455838    43A      0.455839    44A      0.515841  
      45A      0.528412    46A      0.528416    47A      0.557028  
      48A      0.557032    49A      0.563980    50A      0.576405  
      51A      0.654373    52A      0.680639    53A      0.693144  
      54A      0.693145    55A      0.709587    56A      0.711708  
      57A      0.719788    58A      0.719788    59A      0.732866  
      60A      0.732867    61A      0.734086    62A      0.761963  
      63A      0.773366    64A      0.773366    65A      0.778271  
      66A      0.778271    67A      0.784035    68A      0.793006  
      69A      0.793008    70A      0.799547    71A      0.835704  
      72A      0.835706    73A      0.881319    74A      0.883763  
      75A      0.883764    76A      0.896680    77A      0.896683  
      78A      0.934979    79A      0.934980    80A      0.955538  
      81A      0.968733    82A      0.968733    83A      0.989363  
      84A      1.027295    85A      1.058067    86A      1.058069  
      87A      1.070095    88A      1.070097    89A      1.107181  
      90A      1.231031    91A      1.305388    92A      1.307277  
      93A      1.307278    94A      1.323945    95A      1.323946  
      96A      1.370702    97A      1.394172    98A      1.444841  
      99A      1.444842   100A      1.465614   101A      1.481346  
     102A      1.505714   103A      1.539585   104A      1.539588  
     105A      1.574100   106A      1.574102   107A      1.582615  
     108A      1.590290   109A      1.590290   110A      1.595927  
     111A      1.598048   112A      1.598048   113A      1.609927  
     114A      1.684300   115A      1.684300   116A      1.703703  
     117A      1.708306   118A      1.708308   119A      1.795039  
     120A      1.795041   121A      1.820834   122A      1.824372  
     123A      1.854926   124A      1.854927   125A      1.858027  
     126A      1.901081   127A      1.901085   128A      1.902726  
     129A      1.913760   130A      1.924039   131A      1.924039  
     132A      1.952910   133A      1.952912   134A      1.992535  
     135A      1.992535   136A      2.001527   137A      2.014872  
     138A      2.014872   139A      2.026721   140A      2.037846  
     141A      2.048907   142A      2.048907   143A      2.078176  
     144A      2.088153   145A      2.088153   146A      2.141230  
     147A      2.141235   148A      2.179762   149A      2.190702  
     150A      2.198242   151A      2.198242   152A      2.222771  
     153A      2.336244   154A      2.367578   155A      2.367579  
     156A      2.373890   157A      2.450288   158A      2.450294  
     159A      2.473590   160A      2.491194   161A      2.557717  
     162A      2.560689   163A      2.560690   164A      2.621540  
     165A      2.621541   166A      2.704285   167A      2.704291  
     168A      2.724210   169A      2.833600   170A      2.833602  
     171A      2.932869   172A      2.938709   173A      2.954453  
     174A      2.954456   175A      3.029561   176A      3.044973  
     177A      3.044978   178A      3.052025   179A      3.052028  
     180A      3.131531   181A      3.171539   182A      3.181716  
     183A      3.181722   184A      3.196375   185A      3.241013  
     186A      3.250548   187A      3.250550   188A      3.346631  
     189A      3.346635   190A      3.409857   191A      3.409863  
     192A      3.552405   193A      3.552410   194A      3.569124  
     195A      3.661618   196A      3.661624   197A      3.663846  
     198A      3.698506   199A      3.853214   200A      3.853218  
     201A      3.866198   202A      4.041688   203A      4.041689  
     204A      4.059123   205A      4.140697   206A      4.140700  
     207A      4.147703   208A      4.227752   209A      4.258993  
     210A      4.259001   211A      4.331852   212A      4.331853  
     213A      4.338300   214A      4.338300   215A      4.340236  
     216A      4.361937   217A      4.365894   218A      4.479577  
     219A      4.553500   220A      4.553506   221A      4.574252  
     222A      4.574257   223A      4.659470   224A      4.663031  
     225A      4.663038   226A      4.800950   227A      4.827506  
     228A      4.827508   229A      4.873178   230A      4.874936  
     231A      4.924047   232A      4.924047   233A      4.931925  
     234A      4.931926   235A      4.979839   236A      5.021103  
     237A      5.021110   238A      5.138216   239A      5.200283  
     240A      5.200285   241A      5.243333   242A      5.243338  
     243A      5.314601   244A      5.314602   245A      5.394058  
     246A      5.446452   247A      5.446454   248A      5.485775  
     249A      5.646700   250A      5.843120   251A      5.949814  
     252A      5.949815   253A      6.345778   254A      6.797742  
     255A      6.869474   256A      6.962065   257A      6.962066  
     258A      7.003340   259A      7.013723   260A      7.013733  
     261A      7.023320   262A      7.373193   263A      7.401164  
     264A      7.423367   265A      7.423367   266A      7.450393  
     267A      7.450400   268A      7.569118   269A      7.569127  
     270A      7.697478   271A      7.712754   272A      7.856456  
     273A      7.856456   274A      7.944310   275A      7.944321  
     276A      8.091140   277A      8.160164   278A      8.160172  
     279A      8.191045   280A      8.225650   281A      8.225650  
     282A      8.366566   283A      8.462087   284A      8.462103  
     285A      8.616875   286A      8.675225   287A      8.675226  
     288A      8.791175   289A      8.872221   290A      8.872227  
     291A      8.925075   292A      8.925077   293A      8.980450  
     294A      8.991084   295A      9.059393   296A      9.101865  
     297A      9.134889   298A      9.134895   299A      9.246472  
     300A      9.246475   301A      9.373310   302A      9.373320  
     303A      9.473431   304A      9.473431   305A      9.609721  
     306A      9.692225   307A      9.692232   308A      9.746656  
     309A      9.842376   310A      9.842376   311A      9.887128  
     312A      9.983996   313A      9.984003   314A     10.032518  
     315A     10.032522   316A     10.118143   317A     10.181004  
     318A     10.181011   319A     10.476901   320A     10.537308  
     321A     10.537313   322A     10.617016   323A     10.617017  
     324A     10.769385   325A     10.887709   326A     11.059827  
     327A     11.059838   328A     11.176995   329A     11.606987  
     330A     11.807910   331A     12.071597   332A     12.223991  
     333A     12.224027   334A     12.378002   335A     12.420078  
     336A     12.420131   337A     13.076027   338A     13.181736  
     339A     13.181763   340A     14.637458   341A     14.637460  
     342A     14.883121   343A     15.060534   344A     15.120984  
     345A     15.121045   346A     20.920985   347A     30.086927  
     348A     30.086927   349A     30.611827   350A     30.611830  
     351A     31.076090   352A     36.932217   353A     51.937881  
     354A    139.406522   355A    139.406524   356A    139.594003  
     357A    729.023058  

    Final Occupation by Irrep:
              A 
    DOCC [     5 ]
    NA   [     5 ]
    NB   [     5 ]

  @DF-RHF Final Energy:   -56.22395129644764

   => Energetics <=

    Nuclear Repulsion Energy =             11.9457834769598783
    One-Electron Energy =                 -99.6091200232385887
    Two-Electron Energy =                  31.4393852498310693
    Total Energy =                        -56.2239512964476447

Computation Completed


Properties will be evaluated at   0.000000,   0.000000,   0.000000 [a0]

Properties computed using the SCF density matrix


 Multipole Moments:

 ------------------------------------------------------------------------------------
     Multipole            Electronic (a.u.)      Nuclear  (a.u.)        Total (a.u.)
 ------------------------------------------------------------------------------------

 L = 1.  Multiply by 2.5417464519 to convert [e a0] to [Debye]
 Dipole X            :         -0.0006022            0.0006003           -0.0000018
 Dipole Y            :         51.4112456          -52.0087778           -0.5975322
 Dipole Z            :          0.0000000            0.0000000            0.0000000
 Magnitude           :                                                    0.5975322

 ------------------------------------------------------------------------------------

*** tstop() called on cmpsrv002 at Thu Sep 19 14:01:43 2024
Module time:
	user time   =      53.47 seconds =       0.89 minutes
	system time =       4.72 seconds =       0.08 minutes
	total time  =        108 seconds =       1.80 minutes
Total time:
	user time   =     140.94 seconds =       2.35 minutes
	system time =      16.59 seconds =       0.28 minutes
	total time  =        258 seconds =       4.30 minutes

         ---------------------------------------------------------
                        SAPT(DFT): delta HF Segment                

                   by Daniel G. A. Smith and Rob Parrish           
         ---------------------------------------------------------


  ==> Preparing SAPT Data Cache <== 

  ==> DiskDFJK: Density-Fitted J/K Matrices <==

    J tasked:                  Yes
    K tasked:                  Yes
    wK tasked:                  No
    OpenMP threads:              4
    Integrals threads:           4
    Memory [MiB]:             5722
    Algorithm:                Core
    Integral Cache:           SAVE
    Schwarz Cutoff:          1E-12
    Fitting Condition:       1E-10

   => Auxiliary Basis Set <=

  Basis Set: (THIS_BASIS AUX)
    Blend: AUG-CC-PVQZ-JKFIT
    Number of shells: 166
    Number of basis functions: 716
    Number of Cartesian functions: 973
    Spherical Harmonics?: true
    Max angular momentum: 5


  ==> E10 Electostatics <== 

    Elst10,r                        -33.99008622 [mEh]

  ==> E10 Exchange <== 

    Exch10(S^2)                      46.84629814 [mEh]
    Exch10                           48.67598134 [mEh]

  ==> E20 Induction <== 

   => Uncoupled Induction <= 

    Ind20,u (A<-B)                   -7.65819891 [mEh]
    Ind20,u (A->B)                  -13.91349937 [mEh]
    Ind20,u                         -21.57169829 [mEh]
    Exch-Ind20,u (A<-B)               5.00244665 [mEh]
    Exch-Ind20,u (A->B)               7.67728877 [mEh]
    Exch-Ind20,u                     12.67973541 [mEh]
    Exch-Ind20,u (A<-B) (S^inf)       5.42697584 [mEh]
    Exch-Ind20,u (A->B) (S^inf)       8.43056523 [mEh]
    Exch-Ind20,u (S^inf)             13.85754107 [mEh]

   => Coupled Induction <= 

   ---------------------------------------------------
              SAPT Coupled Induction Solver           
   ---------------------------------------------------
    Maxiter             =          20
    Convergence         =   1.000E-06
   ---------------------------------------------------
     Iter       (A<-B)           (B->A)      Time [s]
   ---------------------------------------------------
    Guess    1.272397e-01     1.387342e-01          9
        1    4.093586e-02     3.882715e-02         18
        2    6.999800e-03     1.130691e-02         25
        3    2.922450e-03     3.323155e-03         34
        4    4.391015e-04     7.047723e-04         44
        5    7.406573e-05     1.139417e-04         53
        6    1.118029e-05     1.728177e-05         60
        7    2.401410e-06     2.742370e-06         65
        8    3.594531e-07*    7.214050e-07*        71
   ---------------------------------------------------

    Ind20,r (A<-B)                   -8.72755725 [mEh]
    Ind20,r (A->B)                  -17.64936570 [mEh]
    Ind20,r                         -26.37692295 [mEh]
    Exch-Ind20,r (A<-B)               5.96900265 [mEh]
    Exch-Ind20,r (A->B)              10.24678222 [mEh]
    Exch-Ind20,r                     16.21578487 [mEh]
    Exch-Ind20,r (A<-B) (S^inf)       6.48645725 [mEh]
    Exch-Ind20,r (A->B) (S^inf)      11.30488648 [mEh]
    Exch-Ind20,r (S^inf)             17.79134373 [mEh]

   Partial SAPT(HF) Results, to compute Delta HF (dHF)
  ---------------------------------------------------------------------------------------------------------
    Electrostatics                  -33.99008622 [mEh]    -21.32910112 [kcal/mol]    -89.24095908 [kJ/mol]
      Elst10,r                      -33.99008622 [mEh]    -21.32910112 [kcal/mol]    -89.24095908 [kJ/mol]

    Exchange                         48.67598134 [mEh]     30.54463943 [kcal/mol]    127.79877139 [kJ/mol]
      Exch10                         48.67598134 [mEh]     30.54463943 [kcal/mol]    127.79877139 [kJ/mol]
      Exch10(S^2)                    46.84629814 [mEh]     29.39649589 [kcal/mol]    122.99493882 [kJ/mol]

    Induction (no dHF)              -10.16113808 [mEh]     -6.37621041 [kcal/mol]    -26.67806435 [kJ/mol]
      Ind20,r                       -26.37692295 [mEh]    -16.55176904 [kcal/mol]    -69.25260166 [kJ/mol]
      Exch-Ind20,r                   16.21578487 [mEh]     10.17555863 [kcal/mol]     42.57453731 [kJ/mol]
      Induction (A<-B) (no dHF)      -2.75855459 [mEh]     -1.73101914 [kcal/mol]     -7.24258409 [kJ/mol]
      Induction (A->B) (no dHF)      -7.40258349 [mEh]     -4.64519127 [kcal/mol]    -19.43548026 [kJ/mol]

    Subtotal SAPT(HF)                 4.52475704 [mEh]      2.83932791 [kcal/mol]     11.87974797 [kJ/mol]
    Total HF                         -8.91496680 [mEh]     -5.59422612 [kcal/mol]    -23.40624211 [kJ/mol]
    Delta HF                        -13.43972384 [mEh]     -8.43355403 [kcal/mol]    -35.28599007 [kJ/mol]
  ---------------------------------------------------------------------------------------------------------
   Partial SAPT(HF) Results, alternate SAPT0-like display
  ---------------------------------------------------------------------------------------------------------
    Induction                       -23.60086191 [mEh]    -14.80976444 [kcal/mol]    -61.96405442 [kJ/mol]
      Ind20,r                       -26.37692295 [mEh]    -16.55176904 [kcal/mol]    -69.25260166 [kJ/mol]
      Exch-Ind20,r                   16.21578487 [mEh]     10.17555863 [kcal/mol]     42.57453731 [kJ/mol]
      delta HF,r (2)                -13.43972384 [mEh]     -8.43355403 [kcal/mol]    -35.28599007 [kJ/mol]
      Induction (A<-B)               -6.40718250 [mEh]     -4.02056772 [kcal/mol]    -16.82205533 [kJ/mol]
      Induction (A->B)              -17.19367942 [mEh]    -10.78919672 [kcal/mol]    -45.14199909 [kJ/mol]
  ---------------------------------------------------------------------------------------------------------
   => Libint2 <=

    Primary   basis highest AM E, G, H:  6, 6, 3
    Auxiliary basis highest AM E, G, H:  7, 7, 4
    Onebody   basis highest AM E, G, H:  -, -, -
    Solid Harmonics ordering:            Gaussian

*** tstart() called on cmpsrv002
*** at Thu Sep 19 14:03:40 2024

   => Loading Basis Set <=

    Name: THIS_BASIS
    Role: ORBITAL
    Keyword: BASIS
    atoms 1, 4-6 entry H          line    40 file /home/vance/anaconda3/envs/p4env/share/psi4/basis/aug-cc-pvqz.gbs 
    atoms 2      entry BR         line  5448 file /home/vance/anaconda3/envs/p4env/share/psi4/basis/aug-cc-pvqz.gbs 
    atoms 3      entry N          line   363 file /home/vance/anaconda3/envs/p4env/share/psi4/basis/aug-cc-pvqz.gbs 


         ---------------------------------------------------------
                          SAPT(DFT): DFT Monomer A                 
         ---------------------------------------------------------
                                   SCF
               by Justin Turney, Rob Parrish, Andy Simmonett
                          and Daniel G. A. Smith
                              RKS Reference
                        4 Threads,   7629 MiB Core
         ---------------------------------------------------------

  ==> Geometry <==

    Molecular point group: c1
    Full point group: Cs

    Geometry (in Angstrom), charge = 0, multiplicity = 1:

       Center              X                  Y                   Z               Mass       
    ------------   -----------------  -----------------  -----------------  -----------------
         H            0.000022767418    -0.918024996978     0.000000000000     1.007825032230
         BR          -0.000007232582     0.596195003022     0.000000000000    78.918337600000
      Gh(N)           0.000032767418    -2.646444996978     0.000000000000    14.003074004430
      Gh(H)          -0.474347232582    -2.998914996978     0.821650000000     1.007825032230
      Gh(H)          -0.474347232582    -2.998914996978    -0.821650000000     1.007825032230
      Gh(H)           0.948782767418    -2.998914996978     0.000000000000     1.007825032230

  Running in c1 symmetry.

  Rotational constants: A =      6.19413  B =      0.10839  C =      0.10839 [cm^-1]
  Rotational constants: A = 185695.44926  B =   3249.48133  C =   3249.48095 [MHz]
  Nuclear repulsion =   12.231513498576831

  Charge       = 0
  Multiplicity = 1
  Electrons    = 36
  Nalpha       = 18
  Nbeta        = 18

  ==> Algorithm <==

  SCF Algorithm Type is DF.
  DIIS enabled.
  MOM disabled.
  Fractional occupation disabled.
  Guess Type is SAD.
  Energy threshold   = 1.00e-08
  Density threshold  = 1.00e-08
  Integral threshold = 1.00e-12

  ==> Primary Basis <==

  Basis Set: THIS_BASIS
    Blend: AUG-CC-PVQZ
    Number of shells: 101
    Number of basis functions: 357
    Number of Cartesian functions: 444
    Spherical Harmonics?: true
    Max angular momentum: 4

  ==> DFT Potential <==

   => LibXC <=

    Version 6.2.2
    S. Lehtola, C. Steigemann, M. J.T. Oliveira, and M. A.L. Marques.,  SoftwareX 7, 15 (2018) (10.1016/j.softx.2017.11.002)

   => Composite Functional: PBE0 <= 

    PBE0 Hyb-GGA Exchange-Correlation Functional

    C. Adamo and V. Barone.,  J. Chem. Phys. 110, 6158 (1999) (10.1063/1.478522)
    M. Ernzerhof and G. E. Scuseria.,  J. Chem. Phys. 110, 5029 (1999) (10.1063/1.478401)

    Deriv               =              1
    GGA                 =           TRUE
    Meta                =          FALSE

    Exchange Hybrid     =           TRUE
    MP2 Hybrid          =          FALSE

   => Exchange Functionals <=

    0.7500   Perdew, Burke & Ernzerhof

   => Exact (HF) Exchange <=

    0.2500               HF 

   => Correlation Functionals <=

    1.0000   Perdew, Burke & Ernzerhof

   => LibXC Density Thresholds  <==

    XC_HYB_GGA_XC_PBEH:  1.00E-15 

   => Asymptotic Correction <=

    X Functional        =    XC_GGA_X_LB
    C Functional        =   XC_LDA_C_VWN
    Bulk Shift          =       0.106591
    GRAC Alpha          =       0.500000
    GRAC Beta           =      40.000000

   => Molecular Quadrature <=

    Radial Scheme          =       TREUTLER
    Pruning Scheme         =           NONE
    Nuclear Scheme         =       TREUTLER

    Blocking Scheme        =         OCTREE
    BS radius alpha        =              1
    Pruning alpha          =              1
    Radial Points          =             75
    Spherical Points       =            302
    Total Points           =         131767
    Total Blocks           =           1061
    Max Points             =            255
    Max Functions          =            357
    Weights Tolerance      =       1.00E-15

   => Loading Basis Set <=

    Name: (THIS_BASIS AUX)
    Role: JKFIT
    Keyword: DF_BASIS_SCF
    atoms 1, 4-6 entry H          line    70 file /home/vance/anaconda3/envs/p4env/share/psi4/basis/aug-cc-pvqz-jkfit.gbs 
    atoms 2      entry BR         line  1612 file /home/vance/anaconda3/envs/p4env/share/psi4/basis/aug-cc-pvqz-jkfit.gbs 
    atoms 3      entry N          line   248 file /home/vance/anaconda3/envs/p4env/share/psi4/basis/aug-cc-pvqz-jkfit.gbs 

  ==> Integral Setup <==

  ==> DiskDFJK: Density-Fitted J/K Matrices <==

    J tasked:                  Yes
    K tasked:                  Yes
    wK tasked:                  No
    OpenMP threads:              4
    Integrals threads:           4
    Memory [MiB]:             4526
    Algorithm:                Core
    Integral Cache:           SAVE
    Schwarz Cutoff:          1E-12
    Fitting Condition:       1E-10

   => Auxiliary Basis Set <=

  Basis Set: (THIS_BASIS AUX)
    Blend: AUG-CC-PVQZ-JKFIT
    Number of shells: 166
    Number of basis functions: 716
    Number of Cartesian functions: 973
    Spherical Harmonics?: true
    Max angular momentum: 5

  Cached 100.0% of DFT collocation blocks in 1.167 [GiB].

  Minimum eigenvalue in the overlap matrix is 1.1510460948E-05.
  Reciprocal condition number of the overlap matrix is 9.6311367710E-07.
    Using symmetric orthogonalization.

  ==> Pre-Iterations <==

  SCF Guess: Superposition of Atomic Densities via on-the-fly atomic UHF (no occupation information).

   -------------------------
    Irrep   Nso     Nmo    
   -------------------------
     A        357     357 
   -------------------------
    Total     357     357
   -------------------------

  ==> Iterations <==

                           Total Energy        Delta E     RMS |[F,P]|

   @DF-RKS iter SAD: -2572.91432336257913   -2.57291e+03   0.00000e+00 
   @DF-RKS iter   1: -2574.16739458973689   -1.25307e+00   4.30927e-03 ADIIS/DIIS
   @DF-RKS iter   2: -2574.16087900185357    6.51559e-03   4.14602e-03 ADIIS/DIIS
   @DF-RKS iter   3: -2574.50180627180362   -3.40927e-01   1.95419e-04 ADIIS/DIIS
   @DF-RKS iter   4: -2574.50403631241534   -2.23004e-03   1.14830e-04 ADIIS/DIIS
   @DF-RKS iter   5: -2574.50501809881644   -9.81786e-04   1.12479e-05 DIIS
   @DF-RKS iter   6: -2574.50502230705752   -4.20824e-06   6.63723e-07 DIIS
   @DF-RKS iter   7: -2574.50502224790307    5.91544e-08   5.64054e-08 DIIS
   @DF-RKS iter   8: -2574.50502224178945    6.11362e-09   6.44684e-09 DIIS
  Energy and wave function converged.


  ==> Post-Iterations <==

   Electrons on quadrature grid:
      Ntotal   =   35.9999995019 ; deviation = -4.981e-07 

    Orbital Energies [Eh]
    ---------------------

    Doubly Occupied:                                                      

       1A   -483.387061     2A    -62.783374     3A    -56.557417  
       4A    -56.553984     5A    -56.553984     6A     -8.899884  
       7A     -6.709945     8A     -6.698900     9A     -6.698900  
      10A     -2.796453    11A     -2.793059    12A     -2.793059  
      13A     -2.784033    14A     -2.784033    15A     -0.912275  
      16A     -0.554634    17A     -0.427501    18A     -0.427501  

    Virtual:                                                              

      19A     -0.143647    20A     -0.070475    21A     -0.050084  
      22A     -0.042552    23A     -0.042548    24A     -0.014024  
      25A     -0.014021    26A     -0.007856    27A      0.023168  
      28A      0.023168    29A      0.028781    30A      0.039674  
      31A      0.039678    32A      0.042768    33A      0.067646  
      34A      0.083645    35A      0.083647    36A      0.114081  
      37A      0.114086    38A      0.124958    39A      0.155176  
      40A      0.155180    41A      0.170682    42A      0.175411  
      43A      0.175418    44A      0.193860    45A      0.194734  
      46A      0.194737    47A      0.199443    48A      0.211076  
      49A      0.243780    50A      0.260212    51A      0.260225  
      52A      0.260562    53A      0.298956    54A      0.298968  
      55A      0.308217    56A      0.308218    57A      0.334462  
      58A      0.334465    59A      0.360561    60A      0.389282  
      61A      0.404976    62A      0.404988    63A      0.423391  
      64A      0.431468    65A      0.438330    66A      0.438331  
      67A      0.450885    68A      0.461049    69A      0.461053  
      70A      0.483998    71A      0.517430    72A      0.517437  
      73A      0.546755    74A      0.546758    75A      0.589744  
      76A      0.590539    77A      0.590542    78A      0.596746  
      79A      0.623493    80A      0.658432    81A      0.659808  
      82A      0.672778    83A      0.708956    84A      0.708959  
      85A      0.724133    86A      0.724134    87A      0.750643  
      88A      0.750644    89A      0.782369    90A      0.818474  
      91A      0.818482    92A      0.822405    93A      0.829288  
      94A      0.829315    95A      0.847406    96A      0.888084  
      97A      0.888088    98A      0.900447    99A      0.900453  
     100A      0.944167   101A      0.944172   102A      0.950081  
     103A      0.980140   104A      1.052013   105A      1.081613  
     106A      1.081616   107A      1.104430   108A      1.104430  
     109A      1.133829   110A      1.133833   111A      1.144121  
     112A      1.144130   113A      1.155679   114A      1.183780  
     115A      1.209630   116A      1.227572   117A      1.227572  
     118A      1.237345   119A      1.237346   120A      1.267398  
     121A      1.273373   122A      1.286655   123A      1.307182  
     124A      1.307188   125A      1.326498   126A      1.340634  
     127A      1.340634   128A      1.368213   129A      1.398133  
     130A      1.428130   131A      1.454405   132A      1.454408  
     133A      1.505725   134A      1.505726   135A      1.552062  
     136A      1.575452   137A      1.575455   138A      1.637412  
     139A      1.637427   140A      1.647364   141A      1.677807  
     142A      1.687418   143A      1.687425   144A      1.692589  
     145A      1.725982   146A      1.749918   147A      1.749921  
     148A      1.759184   149A      1.813582   150A      1.813593  
     151A      1.860520   152A      1.860523   153A      1.875356  
     154A      1.891897   155A      1.917276   156A      1.917283  
     157A      1.944384   158A      1.944404   159A      1.953169  
     160A      2.009767   161A      2.025570   162A      2.053288  
     163A      2.053299   164A      2.054023   165A      2.069450  
     166A      2.069462   167A      2.165190   168A      2.176934  
     169A      2.176945   170A      2.227032   171A      2.227044  
     172A      2.234696   173A      2.326124   174A      2.326135  
     175A      2.338366   176A      2.385628   177A      2.385633  
     178A      2.432511   179A      2.504208   180A      2.504222  
     181A      2.547126   182A      2.585601   183A      2.585626  
     184A      2.617757   185A      2.800143   186A      2.800146  
     187A      2.850718   188A      2.922766   189A      2.922771  
     190A      2.976976   191A      2.980732   192A      2.982566  
     193A      3.000869   194A      3.000869   195A      3.025778  
     196A      3.051761   197A      3.053997   198A      3.054003  
     199A      3.084645   200A      3.084649   201A      3.146875  
     202A      3.146885   203A      3.152915   204A      3.189396  
     205A      3.241706   206A      3.241706   207A      3.247747  
     208A      3.247747   209A      3.249287   210A      3.249419  
     211A      3.260691   212A      3.309619   213A      3.309619  
     214A      3.343731   215A      3.343732   216A      3.380911  
     217A      3.380916   218A      3.415110   219A      3.415113  
     220A      3.450957   221A      3.615700   222A      3.615710  
     223A      3.633394   224A      3.679973   225A      3.683558  
     226A      3.683560   227A      3.687293   228A      3.687298  
     229A      3.777143   230A      3.818262   231A      3.818263  
     232A      3.907364   233A      3.907367   234A      3.936256  
     235A      3.978748   236A      4.073274   237A      4.073276  
     238A      4.128050   239A      4.235118   240A      4.253489  
     241A      4.253493   242A      4.305278   243A      4.327782  
     244A      4.327794   245A      4.408741   246A      4.437111  
     247A      4.437114   248A      4.664931   249A      4.664936  
     250A      4.786449   251A      4.812202   252A      4.812205  
     253A      4.962785   254A      5.191529   255A      5.353022  
     256A      5.353035   257A      5.428466   258A      5.643676  
     259A      5.643684   260A      5.705091   261A      5.806529  
     262A      5.806535   263A      5.939065   264A      6.265949  
     265A      6.290530   266A      6.306207   267A      6.421833  
     268A      6.421848   269A      6.645686   270A      6.645712  
     271A      6.866269   272A      6.866278   273A      6.978474  
     274A      7.138377   275A      7.138383   276A      7.192008  
     277A      7.192011   278A      7.311851   279A      7.530774  
     280A      7.643690   281A      8.042875   282A      8.042987  
     283A      8.060627   284A      8.066162   285A      8.098870  
     286A      8.098875   287A      8.158584   288A      8.158627  
     289A      8.179199   290A      8.179344   291A      8.302513  
     292A      8.302522   293A      8.315275   294A      8.437552  
     295A      8.437567   296A      8.569850   297A      8.597379  
     298A      8.597381   299A      8.757900   300A      8.859666  
     301A      8.859674   302A      8.993540   303A      8.993543  
     304A      9.030511   305A      9.091246   306A      9.152978  
     307A      9.152978   308A      9.345905   309A      9.345906  
     310A      9.373128   311A      9.444692   312A      9.463099  
     313A      9.550095   314A      9.550100   315A      9.575991  
     316A      9.708819   317A      9.966424   318A      9.966432  
     319A      9.980352   320A     10.057623   321A     10.057636  
     322A     10.332931   323A     10.425362   324A     10.425370  
     325A     10.577737   326A     10.629625   327A     10.629634  
     328A     10.729185   329A     10.729198   330A     10.772820  
     331A     11.237124   332A     11.237141   333A     11.316263  
     334A     11.917267   335A     11.917282   336A     11.978404  
     337A     12.318933   338A     12.411641   339A     12.411678  
     340A     13.023970   341A     13.023989   342A     13.239206  
     343A     13.880950   344A     14.074006   345A     14.352460  
     346A     14.352509   347A     14.357892   348A     14.559739  
     349A     14.559744   350A     15.904642   351A     15.904670  
     352A     16.309500   353A     18.284897   354A     19.946706  
     355A     21.727068   356A     21.727152   357A     96.402494  

    Final Occupation by Irrep:
              A 
    DOCC [    18 ]
    NA   [    18 ]
    NB   [    18 ]

  @DF-RKS Final Energy: -2574.50502224178945

   => Energetics <=

    Nuclear Repulsion Energy =             12.2315134985768310
    One-Electron Energy =               -3606.9960633452051297
    Two-Electron Energy =                1089.1368879308276973
    DFT Exchange-Correlation Energy =     -68.8773603259892866
    Empirical Dispersion Energy =           0.0000000000000000
    VV10 Nonlocal Energy =                  0.0000000000000000
    Total Energy =                      -2574.5050222417899022

Computation Completed


Properties will be evaluated at   0.000000,   0.000000,   0.000000 [a0]

Properties computed using the SCF density matrix


 Multipole Moments:

 ------------------------------------------------------------------------------------
     Multipole            Electronic (a.u.)      Nuclear  (a.u.)        Total (a.u.)
 ------------------------------------------------------------------------------------

 L = 1.  Multiply by 2.5417464519 to convert [e a0] to [Debye]
 Dipole X            :          0.0004462           -0.0004353            0.0000109
 Dipole Y            :        -38.0624503           37.6977687           -0.3646816
 Dipole Z            :          0.0000000            0.0000000            0.0000000
 Magnitude           :                                                    0.3646816

 ------------------------------------------------------------------------------------

*** tstop() called on cmpsrv002 at Thu Sep 19 14:07:29 2024
Module time:
	user time   =     111.87 seconds =       1.86 minutes
	system time =       6.86 seconds =       0.11 minutes
	total time  =        229 seconds =       3.82 minutes
Total time:
	user time   =     398.56 seconds =       6.64 minutes
	system time =      25.82 seconds =       0.43 minutes
	total time  =        604 seconds =      10.07 minutes
   => Libint2 <=

    Primary   basis highest AM E, G, H:  6, 6, 3
    Auxiliary basis highest AM E, G, H:  7, 7, 4
    Onebody   basis highest AM E, G, H:  -, -, -
    Solid Harmonics ordering:            Gaussian

*** tstart() called on cmpsrv002
*** at Thu Sep 19 14:07:29 2024

   => Loading Basis Set <=

    Name: THIS_BASIS
    Role: ORBITAL
    Keyword: BASIS
    atoms 1, 4-6 entry H          line    40 file /home/vance/anaconda3/envs/p4env/share/psi4/basis/aug-cc-pvqz.gbs 
    atoms 2      entry BR         line  5448 file /home/vance/anaconda3/envs/p4env/share/psi4/basis/aug-cc-pvqz.gbs 
    atoms 3      entry N          line   363 file /home/vance/anaconda3/envs/p4env/share/psi4/basis/aug-cc-pvqz.gbs 


         ---------------------------------------------------------
                          SAPT(DFT): DFT Monomer B                 
         ---------------------------------------------------------
                                   SCF
               by Justin Turney, Rob Parrish, Andy Simmonett
                          and Daniel G. A. Smith
                              RKS Reference
                        4 Threads,   7629 MiB Core
         ---------------------------------------------------------

  ==> Geometry <==

    Molecular point group: c1
    Full point group: Cs

    Geometry (in Angstrom), charge = 0, multiplicity = 1:

       Center              X                  Y                   Z               Mass       
    ------------   -----------------  -----------------  -----------------  -----------------
      Gh(H)           0.000022767418    -0.918024996978     0.000000000000     1.007825032230
      Gh(BR)         -0.000007232582     0.596195003022     0.000000000000    78.918337600000
         N            0.000032767418    -2.646444996978     0.000000000000    14.003074004430
         H           -0.474347232582    -2.998914996978     0.821650000000     1.007825032230
         H           -0.474347232582    -2.998914996978    -0.821650000000     1.007825032230
         H            0.948782767418    -2.998914996978     0.000000000000     1.007825032230

  Running in c1 symmetry.

  Rotational constants: A =      6.19413  B =      0.10839  C =      0.10839 [cm^-1]
  Rotational constants: A = 185695.44926  B =   3249.48133  C =   3249.48095 [MHz]
  Nuclear repulsion =   11.945783476959878

  Charge       = 0
  Multiplicity = 1
  Electrons    = 10
  Nalpha       = 5
  Nbeta        = 5

  ==> Algorithm <==

  SCF Algorithm Type is DF.
  DIIS enabled.
  MOM disabled.
  Fractional occupation disabled.
  Guess Type is SAD.
  Energy threshold   = 1.00e-08
  Density threshold  = 1.00e-08
  Integral threshold = 1.00e-12

  ==> Primary Basis <==

  Basis Set: THIS_BASIS
    Blend: AUG-CC-PVQZ
    Number of shells: 101
    Number of basis functions: 357
    Number of Cartesian functions: 444
    Spherical Harmonics?: true
    Max angular momentum: 4

  ==> DFT Potential <==

   => LibXC <=

    Version 6.2.2
    S. Lehtola, C. Steigemann, M. J.T. Oliveira, and M. A.L. Marques.,  SoftwareX 7, 15 (2018) (10.1016/j.softx.2017.11.002)

   => Composite Functional: PBE0 <= 

    PBE0 Hyb-GGA Exchange-Correlation Functional

    C. Adamo and V. Barone.,  J. Chem. Phys. 110, 6158 (1999) (10.1063/1.478522)
    M. Ernzerhof and G. E. Scuseria.,  J. Chem. Phys. 110, 5029 (1999) (10.1063/1.478401)

    Deriv               =              1
    GGA                 =           TRUE
    Meta                =          FALSE

    Exchange Hybrid     =           TRUE
    MP2 Hybrid          =          FALSE

   => Exchange Functionals <=

    0.7500   Perdew, Burke & Ernzerhof

   => Exact (HF) Exchange <=

    0.2500               HF 

   => Correlation Functionals <=

    1.0000   Perdew, Burke & Ernzerhof

   => LibXC Density Thresholds  <==

    XC_HYB_GGA_XC_PBEH:  1.00E-15 

   => Asymptotic Correction <=

    X Functional        =    XC_GGA_X_LB
    C Functional        =   XC_LDA_C_VWN
    Bulk Shift          =       0.113162
    GRAC Alpha          =       0.500000
    GRAC Beta           =      40.000000

   => Molecular Quadrature <=

    Radial Scheme          =       TREUTLER
    Pruning Scheme         =           NONE
    Nuclear Scheme         =       TREUTLER

    Blocking Scheme        =         OCTREE
    BS radius alpha        =              1
    Pruning alpha          =              1
    Radial Points          =             75
    Spherical Points       =            302
    Total Points           =         131767
    Total Blocks           =           1061
    Max Points             =            255
    Max Functions          =            357
    Weights Tolerance      =       1.00E-15

   => Loading Basis Set <=

    Name: (THIS_BASIS AUX)
    Role: JKFIT
    Keyword: DF_BASIS_SCF
[...]
      12A      0.003227    13A      0.007897    14A      0.020001  
      15A      0.020002    16A      0.032254    17A      0.032262  
      18A      0.036710    19A      0.049038    20A      0.074982  
      21A      0.074985    22A      0.133471    23A      0.152162  
      24A      0.154846    25A      0.161388    26A      0.161391  
      27A      0.170299    28A      0.170304    29A      0.171939  
      30A      0.185447    31A      0.185464    32A      0.190603  
      33A      0.204671    34A      0.207220    35A      0.207224  
      36A      0.217593    37A      0.217597    38A      0.243850  
      39A      0.280287    40A      0.280289    41A      0.300464  
      42A      0.300476    43A      0.314072    44A      0.354649  
      45A      0.354656    46A      0.381676    47A      0.392473  
      48A      0.392474    49A      0.410074    50A      0.460128  
      51A      0.484437    52A      0.509014    53A      0.536113  
      54A      0.536122    55A      0.545396    56A      0.554989  
      57A      0.561813    58A      0.561848    59A      0.573462  
      60A      0.583547    61A      0.583555    62A      0.587845  
      63A      0.587873    64A      0.609162    65A      0.615924  
      66A      0.615926    67A      0.625745    68A      0.657307  
      69A      0.657320    70A      0.662514    71A      0.688266  
      72A      0.688269    73A      0.713469    74A      0.735046  
      75A      0.735057    76A      0.739511    77A      0.739516  
      78A      0.773012    79A      0.773032    80A      0.792146  
      81A      0.792173    82A      0.797917    83A      0.822062  
      84A      0.857645    85A      0.863545    86A      0.863548  
      87A      0.894957    88A      0.894957    89A      0.990560  
      90A      1.030583    91A      1.084213    92A      1.084228  
      93A      1.102328    94A      1.114000    95A      1.114007  
      96A      1.118118    97A      1.160465    98A      1.185618  
      99A      1.185627   100A      1.221377   101A      1.266996  
     102A      1.300791   103A      1.300802   104A      1.315468  
     105A      1.332996   106A      1.370262   107A      1.370272  
     108A      1.389772   109A      1.389786   110A      1.438081  
     111A      1.438409   112A      1.438409   113A      1.449986  
     114A      1.482434   115A      1.482443   116A      1.494442  
     117A      1.494446   118A      1.500558   119A      1.579569  
     120A      1.600442   121A      1.600443   122A      1.615249  
     123A      1.639292   124A      1.639300   125A      1.657394  
     126A      1.689556   127A      1.689556   128A      1.725548  
     129A      1.725550   130A      1.789380   131A      1.795761  
     132A      1.806910   133A      1.813202   134A      1.814566  
     135A      1.814579   136A      1.831161   137A      1.837581  
     138A      1.837582   139A      1.845215   140A      1.845218  
     141A      1.896875   142A      1.896886   143A      1.914942  
     144A      1.919738   145A      1.919746   146A      1.949072  
     147A      1.949075   148A      1.963711   149A      1.967324  
     150A      1.974595   151A      1.974605   152A      2.036029  
     153A      2.136809   154A      2.145875   155A      2.145885  
     156A      2.194896   157A      2.208750   158A      2.208771  
     159A      2.245443   160A      2.272129   161A      2.319760  
     162A      2.319761   163A      2.337248   164A      2.355117  
     165A      2.355127   166A      2.418678   167A      2.418682  
     168A      2.480152   169A      2.575249   170A      2.609137  
     171A      2.609142   172A      2.615490   173A      2.615495  
     174A      2.666203   175A      2.706415   176A      2.706427  
     177A      2.723454   178A      2.777694   179A      2.777706  
     180A      2.829478   181A      2.856172   182A      2.913446  
     183A      2.913457   184A      2.921164   185A      2.954106  
     186A      2.954121   187A      2.989531   188A      3.020070  
     189A      3.020078   190A      3.146876   191A      3.146881  
     192A      3.214279   193A      3.234158   194A      3.234163  
     195A      3.333272   196A      3.335539   197A      3.335541  
     198A      3.366863   199A      3.541642   200A      3.541645  
     201A      3.576162   202A      3.715137   203A      3.744487  
     204A      3.744499   205A      3.783660   206A      3.855419  
     207A      3.855422   208A      3.879721   209A      3.899538  
     210A      3.899550   211A      4.007626   212A      4.011229  
     213A      4.011249   214A      4.119664   215A      4.220778  
     216A      4.220780   217A      4.241281   218A      4.243285  
     219A      4.244670   220A      4.244678   221A      4.369890  
     222A      4.369897   223A      4.431292   224A      4.458983  
     225A      4.458987   226A      4.512440   227A      4.512450  
     228A      4.545628   229A      4.603037   230A      4.603047  
     231A      4.714386   232A      4.761300   233A      4.761301  
     234A      4.761430   235A      4.763236   236A      4.811132  
     237A      4.811136   238A      4.820592   239A      4.837822  
     240A      4.837827   241A      4.994356   242A      4.994361  
     243A      5.064167   244A      5.076149   245A      5.076155  
     246A      5.141047   247A      5.190211   248A      5.190217  
     249A      5.318219   250A      5.601196   251A      5.786095  
     252A      5.786096   253A      6.142986   254A      6.458035  
     255A      6.550723   256A      6.550746   257A      6.597201  
     258A      6.597204   259A      6.629396   260A      6.767009  
     261A      6.782096   262A      6.921123   263A      6.981635  
     264A      6.981639   265A      7.003585   266A      7.161118  
     267A      7.161123   268A      7.170743   269A      7.170752  
     270A      7.243978   271A      7.264148   272A      7.417681  
     273A      7.417695   274A      7.530020   275A      7.530034  
     276A      7.687737   277A      7.739741   278A      7.739762  
     279A      7.829651   280A      7.829664   281A      7.850931  
     282A      7.887168   283A      7.971375   284A      7.971385  
     285A      8.128061   286A      8.245885   287A      8.245910  
     288A      8.340758   289A      8.405798   290A      8.405810  
     291A      8.447703   292A      8.447703   293A      8.507681  
     294A      8.519021   295A      8.596150   296A      8.628506  
     297A      8.656740   298A      8.656744   299A      8.889663  
     300A      8.889668   301A      8.990267   302A      8.990268  
     303A      9.003048   304A      9.003214   305A      9.082747  
     306A      9.190981   307A      9.190983   308A      9.254576  
     309A      9.373860   310A      9.413499   311A      9.413504  
     312A      9.533490   313A      9.533493   314A      9.622947  
     315A      9.670432   316A      9.670438   317A      9.736764  
     318A      9.736766   319A      9.923794   320A      9.994857  
     321A      9.994861   322A     10.103061   323A     10.103066  
     324A     10.270753   325A     10.336850   326A     10.508676  
     327A     10.508690   328A     10.836714   329A     11.195408  
     330A     11.427063   331A     11.671597   332A     11.671632  
     333A     11.687201   334A     11.814440   335A     11.858961  
     336A     11.859012   337A     12.536719   338A     12.586442  
     339A     12.586464   340A     14.449908   341A     14.468465  
     342A     14.468519   343A     14.523966   344A     14.523968  
     345A     14.777277   346A     20.800297   347A     29.971015  
     348A     29.971016   349A     30.495206   350A     30.495209  
     351A     30.956727   352A     35.590732   353A     51.818104  
     354A    139.287288   355A    139.287289   356A    139.470785  
     357A    728.840109  

    Final Occupation by Irrep:
              A 
    DOCC [     5 ]
    NA   [     5 ]
    NB   [     5 ]

  @DF-RKS Final Energy:   -56.51970893117289

   => Energetics <=

    Nuclear Repulsion Energy =             11.9457834769598783
    One-Electron Energy =                 -99.6839124131275582
    Two-Electron Energy =                  37.2621068075261306
    DFT Exchange-Correlation Energy =      -6.0436868025313384
    Empirical Dispersion Energy =           0.0000000000000000
    VV10 Nonlocal Energy =                  0.0000000000000000
    Total Energy =                        -56.5197089311728931

Computation Completed


Properties will be evaluated at   0.000000,   0.000000,   0.000000 [a0]

Properties computed using the SCF density matrix


 Multipole Moments:

 ------------------------------------------------------------------------------------
     Multipole            Electronic (a.u.)      Nuclear  (a.u.)        Total (a.u.)
 ------------------------------------------------------------------------------------

 L = 1.  Multiply by 2.5417464519 to convert [e a0] to [Debye]
 Dipole X            :         -0.0005918            0.0006003            0.0000085
 Dipole Y            :         51.4447491          -52.0087778           -0.5640287
 Dipole Z            :          0.0000000            0.0000000            0.0000000
 Magnitude           :                                                    0.5640287

 ------------------------------------------------------------------------------------

*** tstop() called on cmpsrv002 at Thu Sep 19 14:11:16 2024
Module time:
	user time   =      98.18 seconds =       1.64 minutes
	system time =       3.50 seconds =       0.06 minutes
	total time  =        227 seconds =       3.78 minutes
Total time:
	user time   =     496.75 seconds =       8.28 minutes
	system time =      29.32 seconds =       0.49 minutes
	total time  =        831 seconds =      13.85 minutes

         ---------------------------------------------------------
               SAPT(DFT): Intermolecular Interaction Segment       

                   by Daniel G. A. Smith and Rob Parrish           
         ---------------------------------------------------------

  ==> Algorithm <==

   SAPT DFT Functional             PBE0
   Monomer A GRAC Shift        0.106591
   Monomer B GRAC Shift        0.113162
   Delta HF                        True
   JK Algorithm                      DF

  ==> Preparing SAPT Data Cache <== 

  ==> DiskDFJK: Density-Fitted J/K Matrices <==

    J tasked:                  Yes
    K tasked:                  Yes
    wK tasked:                  No
    OpenMP threads:              4
    Integrals threads:           4
    Memory [MiB]:             4526
    Algorithm:                Core
    Integral Cache:           SAVE
    Schwarz Cutoff:          1E-12
    Fitting Condition:       1E-10

   => Auxiliary Basis Set <=

  Basis Set: (THIS_BASIS AUX)
    Blend: AUG-CC-PVQZ-JKFIT
    Number of shells: 166
    Number of basis functions: 716
    Number of Cartesian functions: 973
    Spherical Harmonics?: true
    Max angular momentum: 5


  ==> E10 Electostatics <== 

    Elst10,r                        -32.63285362 [mEh]

  ==> E10 Exchange <== 

    Exch10(S^2)                      47.27751402 [mEh]
    Exch10                           49.13487552 [mEh]

  ==> E20 Induction <== 

   => Uncoupled Induction <= 

    Ind20,u (A<-B)                   -9.22042057 [mEh]
    Ind20,u (A->B)                  -18.32959406 [mEh]
    Ind20,u                         -27.55001464 [mEh]
    Exch-Ind20,u (A<-B)               5.88738571 [mEh]
    Exch-Ind20,u (A->B)              10.78030721 [mEh]
    Exch-Ind20,u                     16.66769292 [mEh]
    Exch-Ind20,u (A<-B) (S^inf)       6.39394806 [mEh]
    Exch-Ind20,u (A->B) (S^inf)      11.83568434 [mEh]
    Exch-Ind20,u (S^inf)             18.22963240 [mEh]

   => Coupled Induction <= 

   ---------------------------------------------------
              SAPT Coupled Induction Solver           
   ---------------------------------------------------
    Maxiter             =          20
    Convergence         =   1.000E-06
   ---------------------------------------------------
     Iter       (A<-B)           (B->A)      Time [s]
   ---------------------------------------------------
    Guess    1.952270e-01     1.114236e-01         11
        1    3.415823e-02     4.180267e-02         25
        2    1.412371e-02     1.490604e-02         36
        3    2.229844e-03     1.399348e-03         48
        4    1.424815e-04     1.147706e-04         62
        5    3.776587e-05     6.345690e-06         77
        6    2.738165e-06     5.908194e-07*        90
        7    3.256460e-07*    5.908194e-07*        95
   ---------------------------------------------------

    Ind20,r (A<-B)                   -9.08170062 [mEh]
    Ind20,r (A->B)                  -19.54435075 [mEh]
    Ind20,r                         -28.62605137 [mEh]
    Exch-Ind20,r (A<-B)               6.59284367 [mEh]
    Exch-Ind20,r (A->B)              11.97263236 [mEh]
    Exch-Ind20,r                     18.56547603 [mEh]
    Exch-Ind20,r (A<-B) (S^inf)       7.16752390 [mEh]
    Exch-Ind20,r (A->B) (S^inf)      13.16080012 [mEh]
    Exch-Ind20,r (S^inf)             20.32832402 [mEh]
   => Loading Basis Set <=

    Name: (THIS_BASIS AUX)
    Role: RIFIT
    Keyword: DF_BASIS_MP2
    atoms 1, 4-6 entry H          line    30 file /home/vance/anaconda3/envs/p4env/share/psi4/basis/aug-cc-pvqz-ri.gbs 
    atoms 2      entry BR         line  1518 file /home/vance/anaconda3/envs/p4env/share/psi4/basis/aug-cc-pvqz-ri.gbs 
    atoms 3      entry N          line   258 file /home/vance/anaconda3/envs/p4env/share/psi4/basis/aug-cc-pvqz-ri.gbs 



  ==> E20 Dispersion (CHF FDDS) <== 

   Legendre Points:          10
   Lambda Shift:          0.300
   Fxc Kernal:             ALDA
   (P|Fxc|Q) Thresh:  1.000e-06
  DFHelper Memory: AOs need 0.744 GiB; user supplied 5.960 GiB. 
  Using in-core AOs.

  ==> DFHelper <==
    NBF:                             357
    NAux:                            750
    Schwarz Cutoff:                1E-12
    Mask sparsity (%):                 2
    DFH Avail. Memory [GiB]:       5.960
    OpenMP threads:                    4
    Algorithm:                    DIRECT
    AO Core:                        True
    MO Core:                       False
    Hold Metric:                   False
    Metric Power:                  0.000
    Fitting Condition:             1E-12
    Q Shell Max:                      13


  DFHelper Memory: AOs need 0.757 GiB; user supplied 5.960 GiB. 
  Using in-core AOs.


   => Time Integration <= 

       Omega       Weight       Disp20,u         Disp20   time [s]
   2.269e+01    6.667e-02      2.604e-04      2.449e-04          1
   4.147e+00    1.495e-01      4.545e-03      4.116e-03          2
   1.572e+00    2.191e-01      1.365e-02      1.153e-02          4
   7.589e-01    2.693e-01      2.270e-02      1.739e-02          5
   4.049e-01    2.955e-01      2.555e-02      1.791e-02          7
   2.223e-01    2.955e-01      2.147e-02      1.429e-02          9
   1.186e-01    2.693e-01      1.504e-02      9.811e-03         10
   5.727e-02    2.191e-01      9.486e-03      6.152e-03         11
   2.170e-02    1.495e-01      5.337e-03      3.456e-03         12
   3.966e-03    6.667e-02      2.131e-03      1.380e-03         13

    Disp20,u                        -19.12552323 [mEh]
    Disp20                          -13.73189128 [mEh]

  ==> E20 Dispersion (MP2) <== 


    Disp20 (MP2)                    -19.09830003 [mEh]
    Exch-Disp20,u                     4.04007893 [mEh]
    Scaling Scheme                    FIXED
    Scaling Factor                    0.770
    Est. Exch-Disp20,r                3.11086077 [mEh]

   SAPT(DFT) Results
  ---------------------------------------------------------------------------------------------------------
    Electrostatics                  -32.63285362 [mEh]    -20.47742480 [kcal/mol]    -85.67754538 [kJ/mol]
      Elst1,r                       -32.63285362 [mEh]    -20.47742480 [kcal/mol]    -85.67754538 [kJ/mol]

    Exchange                         49.13487552 [mEh]     30.83259988 [kcal/mol]    129.00359790 [kJ/mol]
      Exch1                          49.13487552 [mEh]     30.83259988 [kcal/mol]    129.00359790 [kJ/mol]
      Exch1(S^2)                     47.27751402 [mEh]     29.66708794 [kcal/mol]    124.12709595 [kJ/mol]

    Induction                       -23.50029917 [mEh]    -14.74666037 [kcal/mol]    -61.70002697 [kJ/mol]
      Ind2,r                        -28.62605137 [mEh]    -17.96311843 [kcal/mol]    -75.15768751 [kJ/mol]
      Exch-Ind2,r                    18.56547603 [mEh]     11.65001210 [kcal/mol]     48.74365061 [kJ/mol]
      Induction (A<-B)               -2.48885695 [mEh]     -1.56178132 [kcal/mol]     -6.53449303 [kJ/mol]
      Induction (A->B)               -7.57171838 [mEh]     -4.75132502 [kcal/mol]    -19.87954387 [kJ/mol]
      delta HF,r (2)                -13.43972384 [mEh]     -8.43355403 [kcal/mol]    -35.28599007 [kJ/mol]

    Dispersion                      -10.62102474 [mEh]     -6.66479365 [kcal/mol]    -27.88549662 [kJ/mol]
      Disp2,r                       -13.73188552 [mEh]     -8.61688825 [kcal/mol]    -36.05306046 [kJ/mol]
      Disp2,u                       -19.09830003 [mEh]    -11.98436420 [kcal/mol]    -50.14257983 [kJ/mol]
      Est. Exch-Disp2,r               3.11086077 [mEh]      1.95209461 [kcal/mol]      8.16756384 [kJ/mol]
      Exch-Disp2,u                    4.04007893 [mEh]      2.53518780 [kcal/mol]     10.60722576 [kJ/mol]

    Total SAPT(DFT)                 -17.61930202 [mEh]    -11.05627894 [kcal/mol]    -46.25947107 [kJ/mol]
  ---------------------------------------------------------------------------------------------------------

*** tstop() called on cmpsrv002 at Thu Sep 19 15:25:15 2024
Module time:
	user time   =     577.05 seconds =       9.62 minutes
	system time =      40.62 seconds =       0.68 minutes
	total time  =       4666 seconds =      77.77 minutes
Total time:
	user time   =     975.62 seconds =      16.26 minutes
	system time =      66.44 seconds =       1.11 minutes
	total time  =       5270 seconds =      87.83 minutes

Traceback (most recent call last):
  File "/home/vance/anaconda3/envs/p4env/bin/psi4", line 387, in <module>
    exec(content)
  File "<string>", line 61, in <module>
  File "/home/vance/anaconda3/envs/p4env/lib/python3.12/site-packages/psi4/driver/p4util/python_helpers.py", line 1121, in _core_variable
    raise KeyError(f"psi4.core.variable: Requested variable '{key}' was not set!\n")

KeyError: "psi4.core.variable: Requested variable 'SAPT IND20,R ENERGY' was not set!\n"


Printing out the relevant lines from the Psithon --> Python processed input file:
    eelst = psi4.core.variable('SAPT ELST ENERGY')
    eexch = psi4.core.variable('SAPT EXCH ENERGY')
    eind = psi4.core.variable('SAPT IND ENERGY')
    edisp = psi4.core.variable('SAPT DISP ENERGY')
    esapt = psi4.core.variable('SAPT TOTAL ENERGY')
--> eind20r = psi4.core.variable('SAPT IND20,R ENERGY')
    eexind20r = psi4.core.variable('SAPT EXCH-IND20,R ENERGY')
    eind20u = psi4.core.variable('SAPT IND20,U ENERGY')
    eexind20u = psi4.core.variable('SAPT EXCH-IND20,U ENERGY')
    edisp20 = psi4.core.variable('SAPT DISP20 ENERGY')
    eexdisp20 = psi4.core.variable('SAPT EXCH-DISP20 ENERGY')

!--------------------------------------------------------------------------------!
!                                                                                !
!  "psi4.core.variable: Requested variable 'SAPT IND20,R ENERGY' was not set!\n" !
!                                                                                !
!--------------------------------------------------------------------------------!

    Psi4 stopped on: Thursday, 19 September 2024 03:25PM
    Psi4 wall time for execution: 1:27:51.21

*** Psi4 encountered an error. Buy a developer more coffee!
*** Resources and help at github.com/psi4/psi4.
