
    -----------------------------------------------------------------------
          Psi4: An Open-Source Ab Initio Electronic Structure Package
                               Psi4 1.9.1 release

                         Git: Rev {} zzzzzzz 


    D. G. A. Smith, L. A. Burns, A. C. Simmonett, R. M. Parrish,
    M. C. Schieber, R. Galvelis, P. Kraus, H. Kruse, R. Di Remigio,
    A. Alenaizan, A. M. James, S. Lehtola, J. P. Misiewicz, M. Scheurer,
    R. A. Shaw, J. B. Schriber, Y. Xie, Z. L. Glick, D. A. Sirianni,
    J. S. O'Brien, J. M. Waldrop, A. Kumar, E. G. Hohenstein,
    B. P. Pritchard, B. R. Brooks, H. F. Schaefer III, A. Yu. Sokolov,
    K. Patkowski, A. E. DePrince III, U. Bozkaya, R. A. King,
    F. A. Evangelista, J. M. Turney, T. D. Crawford, C. D. Sherrill,
    J. Chem. Phys. 152(18) 184108 (2020). https://doi.org/10.1063/5.0006002

                            Additional Code Authors
    E. T. Seidl, C. L. Janssen, E. F. Valeev, M. L. Leininger,
    J. F. Gonthier, R. M. Richard, H. R. McAlexander, M. Saitow, X. Wang,
    P. Verma, M. H. Lechner, A. Jiang, S. Behnle, A. G. Heide,
    M. F. Herbst, and D. L. Poole

             Previous Authors, Complete List of Code Contributors,
                       and Citations for Specific Modules
    https://github.com/psi4/psi4/blob/master/codemeta.json
    https://github.com/psi4/psi4/graphs/contributors
    http://psicode.org/psi4manual/master/introduction.html#citing-psifour

    -----------------------------------------------------------------------


    Psi4 started on: Thursday, 19 September 2024 01:57PM

    Process ID: 605184
    Host:       cmpsrv002
    PSIDATADIR: /home/vance/anaconda3/envs/p4env/share/psi4
    Memory:     500.0 MiB
    Threads:    4
    
  ==> Input File <==

--------------------------------------------------------------------------
#charge=0 charge_a=0 charge_b=0 selection_a=1-2 selection_b=3-6 scaling=1.0 benchmark_Eint=-8.137 benchmark_unit=kcal/mol group=XH-N
set_num_threads(4)
memory 8 GB
basis this_basis {
    assign    def2-qzvpp
}

molecule {
     0 1
    --
     0 1
     H       -0.13083        0.13151       -0.43120
     I        0.01507       -0.01526       -2.14801
    --
     0 1
     N       -0.26658        0.26814        1.16811
     H        0.02347       -0.59244        1.61479
     H        0.31741        1.02440        1.50171
     H       -1.22807        0.46047        1.41877
}

set {
    sapt_dft_functional     PBE0
    scf_type                DF
    freeze_core             true
    sapt_dft_grac_shift_a    0.094577
    sapt_dft_grac_shift_b    0.113162
    sapt_dft_do_hybrid      true
    do_ind_exch_sinf        true
    do_disp_exch_sinf       true
}

nrg = energy('sapt(DFT)')

eelst = psi4.variable('SAPT ELST ENERGY')
eexch = psi4.variable('SAPT EXCH ENERGY')
eind = psi4.variable('SAPT IND ENERGY')
edisp = psi4.variable('SAPT DISP ENERGY')
esapt = psi4.variable('SAPT TOTAL ENERGY')
eind20r = psi4.variable('SAPT IND20,R ENERGY')
eexind20r = psi4.variable('SAPT EXCH-IND20,R ENERGY')
eind20u = psi4.variable('SAPT IND20,U ENERGY')
eexind20u = psi4.variable('SAPT EXCH-IND20,U ENERGY')
edisp20 = psi4.variable('SAPT DISP20 ENERGY')
eexdisp20 = psi4.variable('SAPT EXCH-DISP20 ENERGY')
eexch10 = psi4.variable('SAPT EXCH10 ENERGY')
eexch10s2 = psi4.variable('SAPT EXCH10(S^2) ENERGY')
print('sapt elst energy =', eelst)
print('sapt total induction energy =', eind)
print('sapt total dispersion energy =', edisp)
print('sapt total energy =', esapt)
print('sapt ind20,r energy =', eind20r)
print('sapt exch-ind20,r energy =', eexind20r)
print('sapt ind20,u energy =', eind20u)
print('sapt exch-ind20,u energy =', eexind20u)
print('sapt disp20 (u or r?) energy =', edisp20)
print('sapt exch-disp20 (u or r?) energy =', eexdisp20)
print('sapt exch10 (u or r? which s?) energy =', eexch10)
print('sapt exch10 s^2 (u or r?) energy =', eexch10s2)
--------------------------------------------------------------------------
  Threads set to 4 by Python driver.

  Memory set to   7.451 GiB by Python driver.

Scratch directory: /scratch2/vance/psi4/

*** tstart() called on cmpsrv002
*** at Thu Sep 19 13:57:25 2024


         ---------------------------------------------------------
                            SAPT(DFT) Procedure                    

                           by Daniel G. A. Smith                   
         ---------------------------------------------------------

Warning! The default value of SAPT_DFT_EXCH_DISP_SCALE_SCHEME has changed from DISP to FIXED. Please be careful comparing results with earlier versions. 

  ==> Algorithm <==

   SAPT DFT Functional             PBE0
   Monomer A GRAC Shift        0.094577
   Monomer B GRAC Shift        0.113162
   Delta HF                        True
   JK Algorithm                      DF

   Required computations:
     HF  (Dimer)
     HF  (Monomer A)
     HF  (Monomer B)
     DFT (Monomer A)
     DFT (Monomer B)

   => Libint2 <=

    Primary   basis highest AM E, G, H:  6, 6, 3
    Auxiliary basis highest AM E, G, H:  7, 7, 4
    Onebody   basis highest AM E, G, H:  -, -, -
    Solid Harmonics ordering:            Gaussian

*** tstart() called on cmpsrv002
*** at Thu Sep 19 13:57:25 2024

   => Loading Basis Set <=

    Name: THIS_BASIS
    Role: ORBITAL
    Keyword: BASIS
    atoms 1, 4-6 entry H          line    15 file /home/vance/anaconda3/envs/p4env/share/psi4/basis/def2-qzvpp.gbs 
    atoms 2      entry I          line  3401 (ECP: line  4988) file /home/vance/anaconda3/envs/p4env/share/psi4/basis/def2-qzvpp.gbs 
    atoms 3      entry N          line   242 file /home/vance/anaconda3/envs/p4env/share/psi4/basis/def2-qzvpp.gbs 

    !!!  WARNING: ECP capability is in beta. Please check occupations closely.  !!!


         ---------------------------------------------------------
                         SAPT(DFT): delta HF Dimer                 
         ---------------------------------------------------------
                                   SCF
               by Justin Turney, Rob Parrish, Andy Simmonett
                          and Daniel G. A. Smith
                              RHF Reference
                        4 Threads,   7629 MiB Core
         ---------------------------------------------------------

  ==> Geometry <==

    Molecular point group: c1
    Full point group: C1

    Geometry (in Angstrom), charge = 0, multiplicity = 1:

       Center              X                  Y                   Z               Mass       
    ------------   -----------------  -----------------  -----------------  -----------------
         H           -0.111190854293     0.111845331322     1.308145705654     1.007825032230
         I            0.034709145707    -0.034924668678    -0.408664294346   126.904471900000
         N           -0.246940854293     0.248475331322     2.907455705654    14.003074004430
         H            0.043109145707    -0.612104668678     3.354135705654     1.007825032230
         H            0.337049145707     1.004735331322     3.241055705654     1.007825032230
         H           -1.208430854293     0.440805331322     3.158115705654     1.007825032230

  Running in c1 symmetry.

  Rotational constants: A =      6.16453  B =      0.09517  C =      0.09517 [cm^-1]
  Rotational constants: A = 184807.84208  B =   2853.15135  C =   2853.15090 [MHz]
  Nuclear repulsion =   60.774392142607397

  Charge       = 0
  Multiplicity = 1
  Electrons    = 36
  Nalpha       = 18
  Nbeta        = 18

  ==> Algorithm <==

  SCF Algorithm Type is DF.
  DIIS enabled.
  MOM disabled.
  Fractional occupation disabled.
  Guess Type is SAD.
  Energy threshold   = 1.00e-08
  Density threshold  = 1.00e-08
  Integral threshold = 1.00e-12

  ==> Primary Basis <==

  Basis Set: THIS_BASIS
    Blend: DEF2-QZVPP
    Number of shells: 79
    Number of basis functions: 259
    Number of Cartesian functions: 316
    Spherical Harmonics?: true
    Max angular momentum: 4

  Core potential: THIS_BASIS
    Number of shells: 4
    Number of ECP primitives: 29
    Number of ECP core electrons: 28
    Max angular momentum: 3

   => Loading Basis Set <=

    Name: (THIS_BASIS AUX)
    Role: JKFIT
    Keyword: DF_BASIS_SCF
    atoms 1, 4-6 entry H          line    18 file /home/vance/anaconda3/envs/p4env/share/psi4/basis/def2-universal-jkfit.gbs 
    atoms 2      entry I          line  4980 file /home/vance/anaconda3/envs/p4env/share/psi4/basis/def2-universal-jkfit.gbs 
    atoms 3      entry N          line   258 file /home/vance/anaconda3/envs/p4env/share/psi4/basis/def2-universal-jkfit.gbs 

  ==> Integral Setup <==

  ==> DiskDFJK: Density-Fitted J/K Matrices <==

    J tasked:                  Yes
    K tasked:                  Yes
    wK tasked:                  No
    OpenMP threads:              4
    Integrals threads:           4
    Memory [MiB]:             5722
    Algorithm:                Core
    Integral Cache:           SAVE
    Schwarz Cutoff:          1E-12
    Fitting Condition:       1E-10

   => Auxiliary Basis Set <=

  Basis Set: (THIS_BASIS AUX)
    Blend: DEF2-UNIVERSAL-JKFIT
    Number of shells: 95
    Number of basis functions: 367
    Number of Cartesian functions: 482
    Spherical Harmonics?: true
    Max angular momentum: 5

  Minimum eigenvalue in the overlap matrix is 1.0376522430E-04.
  Reciprocal condition number of the overlap matrix is 1.2128407584E-05.
    Using symmetric orthogonalization.

  ==> Pre-Iterations <==

  SCF Guess: Superposition of Atomic Densities via on-the-fly atomic UHF (no occupation information).

   -------------------------
    Irrep   Nso     Nmo    
   -------------------------
     A        259     259 
   -------------------------
    Total     259     259
   -------------------------

  ==> Iterations <==

                           Total Energy        Delta E     RMS |[F,P]|

   @DF-RHF iter SAD:  -350.15405155890835   -3.50154e+02   0.00000e+00 
   @DF-RHF iter   1:  -353.01421750956649   -2.86017e+00   3.65349e-03 DIIS/ADIIS
   @DF-RHF iter   2:  -353.39919525310029   -3.84978e-01   2.07757e-03 DIIS/ADIIS
   @DF-RHF iter   3:  -353.46457861063203   -6.53834e-02   1.75281e-04 DIIS/ADIIS
   @DF-RHF iter   4:  -353.46635062143213   -1.77201e-03   6.66629e-05 DIIS
   @DF-RHF iter   5:  -353.46662602929609   -2.75408e-04   3.37944e-05 DIIS
   @DF-RHF iter   6:  -353.46667428088307   -4.82516e-05   8.23001e-06 DIIS
   @DF-RHF iter   7:  -353.46668116609573   -6.88521e-06   2.32891e-06 DIIS
   @DF-RHF iter   8:  -353.46668151064296   -3.44547e-07   7.63724e-07 DIIS
   @DF-RHF iter   9:  -353.46668157077977   -6.01368e-08   1.62438e-07 DIIS
   @DF-RHF iter  10:  -353.46668157357635   -2.79658e-09   3.00779e-08 DIIS
   @DF-RHF iter  11:  -353.46668157369220   -1.15847e-10   7.15655e-09 DIIS
  Energy and wave function converged.


  ==> Post-Iterations <==

    Orbital Energies [Eh]
    ---------------------

    Doubly Occupied:                                                      

       1A    -15.603076     2A     -7.690932     3A     -5.542406  
       4A     -5.537552     5A     -5.537552     6A     -2.238098  
       7A     -2.235002     8A     -2.235002     9A     -2.229552  
      10A     -2.229551    11A     -1.206998    12A     -0.859152  
      13A     -0.694661    14A     -0.694657    15A     -0.577754  
      16A     -0.389690    17A     -0.341204    18A     -0.341204  

    Virtual:                                                              

      19A      0.076156    20A      0.133051    21A      0.133053  
      22A      0.148427    23A      0.195831    24A      0.231607  
      25A      0.231611    26A      0.252607    27A      0.252609  
      28A      0.277964    29A      0.301200    30A      0.320916  
      31A      0.320917    32A      0.356423    33A      0.356445  
      34A      0.401230    35A      0.471737    36A      0.480504  
      37A      0.480509    38A      0.523485    39A      0.523489  
      40A      0.574212    41A      0.743870    42A      0.743874  
      43A      0.748432    44A      0.813127    45A      0.813141  
      46A      0.825982    47A      0.849861    48A      0.850357  
      49A      0.861652    50A      0.861654    51A      0.863694  
      52A      0.917930    53A      0.952651    54A      0.952651  
      55A      0.974092    56A      1.003007    57A      1.003010  
      58A      1.011010    59A      1.011017    60A      1.052623  
      61A      1.052638    62A      1.063782    63A      1.063785  
      64A      1.081698    65A      1.107281    66A      1.159583  
      67A      1.159585    68A      1.241567    69A      1.319492  
      70A      1.319505    71A      1.327024    72A      1.372760  
      73A      1.408457    74A      1.465186    75A      1.465204  
      76A      1.598193    77A      1.598193    78A      1.604308  
      79A      1.605021    80A      1.632118    81A      1.632119  
      82A      1.700460    83A      1.765852    84A      1.857263  
      85A      1.857279    86A      1.983409    87A      1.983413  
      88A      2.038087    89A      2.144561    90A      2.144746  
      91A      2.154105    92A      2.154105    93A      2.191083  
      94A      2.191085    95A      2.292746    96A      2.294388  
      97A      2.294394    98A      2.341685    99A      2.364201  
     100A      2.372254   101A      2.372264   102A      2.482297  
     103A      2.482338   104A      2.548837   105A      2.548850  
     106A      2.594911   107A      2.594919   108A      2.604679  
     109A      2.675587   110A      2.675601   111A      2.685579  
     112A      2.767314   113A      2.767373   114A      2.843331  
     115A      2.917157   116A      2.917177   117A      2.951931  
     118A      2.972163   119A      2.972163   120A      3.002327  
     121A      3.079163   122A      3.079184   123A      3.126299  
     124A      3.126324   125A      3.161241   126A      3.174892  
     127A      3.181659   128A      3.181668   129A      3.237673  
     130A      3.277448   131A      3.277456   132A      3.343590  
     133A      3.420252   134A      3.488369   135A      3.488370  
     136A      3.608887   137A      3.678088   138A      3.678099  
     139A      3.778734   140A      3.778735   141A      3.782673  
     142A      3.783215   143A      3.806829   144A      3.911205  
     145A      3.911223   146A      3.923151   147A      4.115324  
     148A      4.115356   149A      4.134783   150A      4.323960  
     151A      4.323968   152A      4.344497   153A      4.548447  
     154A      4.600018   155A      4.600040   156A      4.625306  
     157A      5.388512   158A      5.405270   159A      5.405314  
     160A      6.045999   161A      6.046021   162A      6.068997  
     163A      6.074000   164A      6.158287   165A      6.204561  
     166A      6.204572   167A      6.265774   168A      6.296143  
     169A      6.296158   170A      6.315048   171A      6.315060  
     172A      6.692918   173A      6.707024   174A      6.707117  
     175A      6.723493   176A      6.968307   177A      6.968332  
     178A      6.997679   179A      7.207476   180A      7.210284  
     181A      7.322766   182A      7.322811   183A      7.473376  
     184A      7.473401   185A      7.570005   186A      7.570024  
     187A      7.610265   188A      7.631776   189A      7.631779  
     190A      7.745668   191A      7.944960   192A      7.944990  
     193A      7.997220   194A      8.057212   195A      8.057231  
     196A      8.089229   197A      8.089241   198A      8.182694  
     199A      8.247986   200A      8.273605   201A      8.273637  
     202A      8.391504   203A      8.407870   204A      8.407896  
     205A      8.464648   206A      8.545234   207A      8.545306  
     208A      8.597100   209A      8.606459   210A      8.802741  
     211A      8.809890   212A      8.809945   213A      8.829019  
     214A      8.829041   215A      9.057743   216A      9.059453  
     217A      9.059496   218A      9.154718   219A      9.154767  
     220A      9.349741   221A      9.502089   222A      9.502098  
     223A      9.642636   224A      9.966174   225A      9.969592  
     226A      9.969600   227A     10.087676   228A     10.087677  
     229A     10.252477   230A     10.484531   231A     10.484535  
     232A     10.600490   233A     10.722764   234A     11.591615  
     235A     11.660216   236A     11.660254   237A     12.076233  
     238A     12.090315   239A     12.090323   240A     12.276706  
     241A     12.276759   242A     12.316135   243A     12.316314  
     244A     12.319187   245A     12.319190   246A     12.410215  
     247A     12.435580   248A     12.435581   249A     12.716739  
     250A     14.825322   251A     14.825339   252A     14.911461  
     253A     15.689876   254A     39.438204   255A     40.398197  
     256A     40.398197   257A     40.546163   258A     79.218791  
     259A    200.575638  

    Final Occupation by Irrep:
              A 
    DOCC [    18 ]
    NA   [    18 ]
    NB   [    18 ]

  @DF-RHF Final Energy:  -353.46668157369220

   => Energetics <=

    Nuclear Repulsion Energy =             60.7743921426073967
    One-Electron Energy =                -716.1140597528959688
    Two-Electron Energy =                 301.8729860365963305
    Total Energy =                       -353.4666815736921990

Computation Completed


Properties will be evaluated at   0.000000,   0.000000,   0.000000 [a0]

Properties computed using the SCF density matrix


 Multipole Moments:

 ------------------------------------------------------------------------------------
     Multipole            Electronic (a.u.)      Nuclear  (a.u.)        Total (a.u.)
 ------------------------------------------------------------------------------------

 L = 1.  Multiply by 2.5417464519 to convert [e a0] to [Debye]
 Dipole X            :          3.2200013           -3.4021132           -0.1821119
 Dipole Y            :         -3.2399776            3.4232236            0.1832460
 Dipole Z            :        -37.9120141           40.0565916            2.1445775
 Magnitude           :                                                    2.1600825

 ------------------------------------------------------------------------------------

*** tstop() called on cmpsrv002 at Thu Sep 19 13:57:49 2024
Module time:
	user time   =      16.96 seconds =       0.28 minutes
	system time =       2.30 seconds =       0.04 minutes
	total time  =         24 seconds =       0.40 minutes
Total time:
	user time   =      16.97 seconds =       0.28 minutes
	system time =       2.30 seconds =       0.04 minutes
	total time  =         24 seconds =       0.40 minutes
   => Libint2 <=

    Primary   basis highest AM E, G, H:  6, 6, 3
    Auxiliary basis highest AM E, G, H:  7, 7, 4
    Onebody   basis highest AM E, G, H:  -, -, -
    Solid Harmonics ordering:            Gaussian

*** tstart() called on cmpsrv002
*** at Thu Sep 19 13:57:50 2024

   => Loading Basis Set <=

    Name: THIS_BASIS
    Role: ORBITAL
    Keyword: BASIS
    atoms 1, 4-6 entry H          line    15 file /home/vance/anaconda3/envs/p4env/share/psi4/basis/def2-qzvpp.gbs 
    atoms 2      entry I          line  3401 (ECP: line  4988) file /home/vance/anaconda3/envs/p4env/share/psi4/basis/def2-qzvpp.gbs 
    atoms 3      entry N          line   242 file /home/vance/anaconda3/envs/p4env/share/psi4/basis/def2-qzvpp.gbs 

    !!!  WARNING: ECP capability is in beta. Please check occupations closely.  !!!


         ---------------------------------------------------------
                       SAPT(DFT): delta HF Monomer A               
         ---------------------------------------------------------
                                   SCF
               by Justin Turney, Rob Parrish, Andy Simmonett
                          and Daniel G. A. Smith
                              RHF Reference
                        4 Threads,   7629 MiB Core
         ---------------------------------------------------------

  ==> Geometry <==

    Molecular point group: c1
    Full point group: C1

    Geometry (in Angstrom), charge = 0, multiplicity = 1:

       Center              X                  Y                   Z               Mass       
    ------------   -----------------  -----------------  -----------------  -----------------
         H           -0.111190854293     0.111845331322     1.308145705654     1.007825032230
         I            0.034709145707    -0.034924668678    -0.408664294346   126.904471900000
      Gh(N)          -0.246940854293     0.248475331322     2.907455705654    14.003074004430
      Gh(H)           0.043109145707    -0.612104668678     3.354135705654     1.007825032230
      Gh(H)           0.337049145707     1.004735331322     3.241055705654     1.007825032230
      Gh(H)          -1.208430854293     0.440805331322     3.158115705654     1.007825032230

  Running in c1 symmetry.

  Rotational constants: A =      6.16453  B =      0.09517  C =      0.09517 [cm^-1]
  Rotational constants: A = 184807.84208  B =   2853.15135  C =   2853.15090 [MHz]
  Nuclear repulsion =    7.650438279290174

  Charge       = 0
  Multiplicity = 1
  Electrons    = 26
  Nalpha       = 13
  Nbeta        = 13

  ==> Algorithm <==

  SCF Algorithm Type is DF.
  DIIS enabled.
  MOM disabled.
  Fractional occupation disabled.
  Guess Type is SAD.
  Energy threshold   = 1.00e-08
  Density threshold  = 1.00e-08
  Integral threshold = 1.00e-12

  ==> Primary Basis <==

  Basis Set: THIS_BASIS
    Blend: DEF2-QZVPP
    Number of shells: 79
    Number of basis functions: 259
    Number of Cartesian functions: 316
    Spherical Harmonics?: true
    Max angular momentum: 4

  Core potential: THIS_BASIS
    Number of shells: 4
    Number of ECP primitives: 29
    Number of ECP core electrons: 28
    Max angular momentum: 3

   => Loading Basis Set <=

    Name: (THIS_BASIS AUX)
    Role: JKFIT
    Keyword: DF_BASIS_SCF
    atoms 1, 4-6 entry H          line    18 file /home/vance/anaconda3/envs/p4env/share/psi4/basis/def2-universal-jkfit.gbs 
    atoms 2      entry I          line  4980 file /home/vance/anaconda3/envs/p4env/share/psi4/basis/def2-universal-jkfit.gbs 
    atoms 3      entry N          line   258 file /home/vance/anaconda3/envs/p4env/share/psi4/basis/def2-universal-jkfit.gbs 

  ==> Integral Setup <==

  ==> DiskDFJK: Density-Fitted J/K Matrices <==

    J tasked:                  Yes
    K tasked:                  Yes
    wK tasked:                  No
    OpenMP threads:              4
    Integrals threads:           4
    Memory [MiB]:             5722
    Algorithm:                Core
    Integral Cache:           SAVE
    Schwarz Cutoff:          1E-12
    Fitting Condition:       1E-10

   => Auxiliary Basis Set <=

  Basis Set: (THIS_BASIS AUX)
    Blend: DEF2-UNIVERSAL-JKFIT
    Number of shells: 95
    Number of basis functions: 367
    Number of Cartesian functions: 482
    Spherical Harmonics?: true
    Max angular momentum: 5

  Minimum eigenvalue in the overlap matrix is 1.0376522430E-04.
  Reciprocal condition number of the overlap matrix is 1.2128407584E-05.
    Using symmetric orthogonalization.

  ==> Pre-Iterations <==

  SCF Guess: Superposition of Atomic Densities via on-the-fly atomic UHF (no occupation information).

   -------------------------
    Irrep   Nso     Nmo    
   -------------------------
     A        259     259 
   -------------------------
    Total     259     259
   -------------------------

  ==> Iterations <==

                           Total Energy        Delta E     RMS |[F,P]|

   @DF-RHF iter SAD:  -294.17036349177533   -2.94170e+02   0.00000e+00 
   @DF-RHF iter   1:  -296.92180080961930   -2.75144e+00   3.20193e-03 DIIS/ADIIS
   @DF-RHF iter   2:  -297.18640845450028   -2.64608e-01   1.86756e-03 DIIS/ADIIS
   @DF-RHF iter   3:  -297.23752647823517   -5.11180e-02   1.47098e-04 DIIS/ADIIS
   @DF-RHF iter   4:  -297.23803074286116   -5.04265e-04   6.70972e-05 DIIS
   @DF-RHF iter   5:  -297.23812650572819   -9.57629e-05   1.79367e-05 DIIS
   @DF-RHF iter   6:  -297.23814393329553   -1.74276e-05   3.23233e-06 DIIS
   @DF-RHF iter   7:  -297.23814533923587   -1.40594e-06   6.03263e-07 DIIS
   @DF-RHF iter   8:  -297.23814537889064   -3.96548e-08   1.45674e-07 DIIS
   @DF-RHF iter   9:  -297.23814538100976   -2.11912e-09   3.01029e-08 DIIS
   @DF-RHF iter  10:  -297.23814538112185   -1.12095e-10   7.41368e-09 DIIS
  Energy and wave function converged.


  ==> Post-Iterations <==

    Orbital Energies [Eh]
    ---------------------

    Doubly Occupied:                                                      

       1A     -7.750328     2A     -5.604376     3A     -5.595343  
       4A     -5.595343     5A     -2.300378     6A     -2.295668  
       7A     -2.295668     8A     -2.285475     9A     -2.285475  
      10A     -0.903180    11A     -0.514554    12A     -0.386741  
      13A     -0.386741  

    Virtual:                                                              

      14A      0.046625    15A      0.098146    16A      0.135602  
      17A      0.135603    18A      0.173980    19A      0.206687  
      20A      0.217124    21A      0.217124    22A      0.252640  
      23A      0.252645    24A      0.291046    25A      0.291047  
      26A      0.319619    27A      0.339485    28A      0.363586  
      29A      0.363601    30A      0.421951    31A      0.538295  
      32A      0.538307    33A      0.542613    34A      0.620371  
      35A      0.620373    36A      0.702857    37A      0.749163  
      38A      0.749171    39A      0.790950    40A      0.790952  
      41A      0.808820    42A      0.809960    43A      0.820190  
      44A      0.878873    45A      0.909607    46A      0.910185  
      47A      0.910193    48A      0.943486    49A      0.947441  
      50A      0.947443    51A      0.981814    52A      0.981815  
      53A      1.000789    54A      1.006045    55A      1.006047  
      56A      1.063918    57A      1.063953    58A      1.077783  
      59A      1.109363    60A      1.109365    61A      1.160933  
      62A      1.251865    63A      1.251870    64A      1.266139  
      65A      1.312879    66A      1.367870    67A      1.367871  
      68A      1.479350    69A      1.547663    70A      1.547673  
      71A      1.548804    72A      1.548810    73A      1.556321  
      74A      1.558349    75A      1.591990    76A      1.617557  
      77A      1.617560    78A      1.693411    79A      1.937770  
      80A      1.937772    81A      1.969618    82A      2.096412  
      83A      2.096447    84A      2.109933    85A      2.109933  
      86A      2.118416    87A      2.121978    88A      2.121987  
      89A      2.302920    90A      2.302929    91A      2.331311  
      92A      2.388093    93A      2.388103    94A      2.460110  
      95A      2.460136    96A      2.466312    97A      2.547049  
      98A      2.547057    99A      2.547303   100A      2.659054  
     101A      2.659065   102A      2.682533   103A      2.720011  
     104A      2.720015   105A      2.842272   106A      2.842277  
     107A      2.892856   108A      2.892877   109A      2.905160  
     110A      2.918703   111A      2.918704   112A      2.931838  
     113A      2.996053   114A      2.996094   115A      3.064528  
     116A      3.073489   117A      3.073557   118A      3.146244  
     119A      3.146250   120A      3.152413   121A      3.213123  
     122A      3.246083   123A      3.295884   124A      3.415142  
     125A      3.437924   126A      3.437927   127A      3.466403  
     128A      3.466418   129A      3.534250   130A      3.556055  
     131A      3.556095   132A      3.724497   133A      3.724498  
     134A      3.730787   135A      3.731334   136A      3.747521  
     137A      3.783965   138A      3.783971   139A      3.882596  
     140A      3.882607   141A      3.925058   142A      3.993440  
     143A      4.263167   144A      4.263203   145A      4.347614  
     146A      4.396689   147A      4.542225   148A      4.542227  
     149A      4.562118   150A      4.837445   151A      5.047301  
     152A      5.047309   153A      5.456938   154A      5.971139  
     155A      5.971163   156A      6.052145   157A      6.062747  
     158A      6.218832   159A      6.218862   160A      6.366700  
     161A      6.415854   162A      6.415869   163A      6.478278  
     164A      6.478288   165A      6.546210   166A      6.686885  
     167A      6.686900   168A      6.980256   169A      6.980366  
     170A      7.040932   171A      7.199642   172A      7.199661  
     173A      7.284934   174A      7.383394   175A      7.564262  
     176A      7.564345   177A      7.647890   178A      7.708699  
     179A      7.865184   180A      7.865209   181A      7.948065  
     182A      8.037224   183A      8.037232   184A      8.137658  
     185A      8.215577   186A      8.215627   187A      8.267297  
     188A      8.267304   189A      8.392685   190A      8.492686  
     191A      8.492693   192A      8.597036   193A      8.630581  
     194A      8.630591   195A      8.759411   196A      8.776950  
     197A      8.776973   198A      8.801482   199A      8.867996  
     200A      8.868017   201A      8.983545   202A      9.027545  
     203A      9.027551   204A      9.124515   205A      9.209365  
     206A      9.270981   207A      9.270988   208A      9.414726  
     209A      9.414731   210A      9.449162   211A      9.484299  
     212A      9.744916   213A      9.791916   214A      9.791969  
     215A      9.913540   216A     10.087263   217A     10.087292  
     218A     10.141592   219A     10.336751   220A     10.336757  
     221A     10.415622   222A     10.747854   223A     10.747863  
     224A     11.069159   225A     11.069179   226A     11.199358  
     227A     11.830693   228A     11.830698   229A     12.004232  
     230A     12.257564   231A     12.257564   232A     12.260812  
     233A     12.260935   234A     12.351646   235A     12.351704  
     236A     12.381003   237A     12.381016   238A     12.666945  
     239A     12.764076   240A     13.682637   241A     13.883976  
     242A     13.884005   243A     14.196130   244A     14.289817  
     245A     14.289842   246A     14.584054   247A     14.584096  
     248A     14.626089   249A     14.865509   250A     16.098395  
     251A     18.289536   252A     18.289608   253A     25.574896  
     254A     40.339461   255A     40.339461   256A     40.484787  
     257A     70.349606   258A     79.159701   259A    318.745259  

    Final Occupation by Irrep:
              A 
    DOCC [    13 ]
    NA   [    13 ]
    NB   [    13 ]

  @DF-RHF Final Energy:  -297.23814538112185

   => Energetics <=

    Nuclear Repulsion Energy =              7.6504382792901735
    One-Electron Energy =                -533.3786353873194912
    Two-Electron Energy =                 228.4900517269074669
    Total Energy =                       -297.2381453811218535

Computation Completed


Properties will be evaluated at   0.000000,   0.000000,   0.000000 [a0]

Properties computed using the SCF density matrix


 Multipole Moments:

 ------------------------------------------------------------------------------------
     Multipole            Electronic (a.u.)      Nuclear  (a.u.)        Total (a.u.)
 ------------------------------------------------------------------------------------

 L = 1.  Multiply by 2.5417464519 to convert [e a0] to [Debye]
 Dipole X            :         -1.4472854            1.4296492           -0.0176361
 Dipole Y            :          1.4563367           -1.4385944            0.0177423
 Dipole Z            :         17.0420702          -16.8345527            0.2075175
 Magnitude           :                                                    0.2090199

 ------------------------------------------------------------------------------------

*** tstop() called on cmpsrv002 at Thu Sep 19 13:58:11 2024
Module time:
	user time   =      16.23 seconds =       0.27 minutes
	system time =       1.94 seconds =       0.03 minutes
	total time  =         21 seconds =       0.35 minutes
Total time:
	user time   =      33.23 seconds =       0.55 minutes
	system time =       4.25 seconds =       0.07 minutes
	total time  =         46 seconds =       0.77 minutes
   => Libint2 <=

    Primary   basis highest AM E, G, H:  6, 6, 3
    Auxiliary basis highest AM E, G, H:  7, 7, 4
    Onebody   basis highest AM E, G, H:  -, -, -
    Solid Harmonics ordering:            Gaussian

*** tstart() called on cmpsrv002
*** at Thu Sep 19 13:58:11 2024

   => Loading Basis Set <=

    Name: THIS_BASIS
    Role: ORBITAL
    Keyword: BASIS
    atoms 1, 4-6 entry H          line    15 file /home/vance/anaconda3/envs/p4env/share/psi4/basis/def2-qzvpp.gbs 
    atoms 2      entry I          line  3401 (ECP: line  4988) file /home/vance/anaconda3/envs/p4env/share/psi4/basis/def2-qzvpp.gbs 
    atoms 3      entry N          line   242 file /home/vance/anaconda3/envs/p4env/share/psi4/basis/def2-qzvpp.gbs 

    !!!  WARNING: ECP capability is in beta. Please check occupations closely.  !!!


         ---------------------------------------------------------
                       SAPT(DFT): delta HF Monomer B               
         ---------------------------------------------------------
                                   SCF
               by Justin Turney, Rob Parrish, Andy Simmonett
                          and Daniel G. A. Smith
                              RHF Reference
                        4 Threads,   7629 MiB Core
         ---------------------------------------------------------

  ==> Geometry <==

    Molecular point group: c1
    Full point group: C1

    Geometry (in Angstrom), charge = 0, multiplicity = 1:

       Center              X                  Y                   Z               Mass       
    ------------   -----------------  -----------------  -----------------  -----------------
      Gh(H)          -0.111190854293     0.111845331322     1.308145705654     1.007825032230
      Gh(I)           0.034709145707    -0.034924668678    -0.408664294346   126.904471900000
         N           -0.246940854293     0.248475331322     2.907455705654    14.003074004430
         H            0.043109145707    -0.612104668678     3.354135705654     1.007825032230
         H            0.337049145707     1.004735331322     3.241055705654     1.007825032230
         H           -1.208430854293     0.440805331322     3.158115705654     1.007825032230

  Running in c1 symmetry.

  Rotational constants: A =      6.16453  B =      0.09517  C =      0.09517 [cm^-1]
  Rotational constants: A = 184807.84208  B =   2853.15135  C =   2853.15090 [MHz]
  Nuclear repulsion =   11.944053136846437

  Charge       = 0
  Multiplicity = 1
  Electrons    = 10
  Nalpha       = 5
  Nbeta        = 5

  ==> Algorithm <==

  SCF Algorithm Type is DF.
  DIIS enabled.
  MOM disabled.
  Fractional occupation disabled.
  Guess Type is SAD.
  Energy threshold   = 1.00e-08
  Density threshold  = 1.00e-08
  Integral threshold = 1.00e-12

  ==> Primary Basis <==

  Basis Set: THIS_BASIS
    Blend: DEF2-QZVPP
    Number of shells: 79
    Number of basis functions: 259
    Number of Cartesian functions: 316
    Spherical Harmonics?: true
    Max angular momentum: 4

  Core potential: THIS_BASIS
    Number of shells: 4
    Number of ECP primitives: 29
    Number of ECP core electrons: 0
    Max angular momentum: 3

   => Loading Basis Set <=

    Name: (THIS_BASIS AUX)
    Role: JKFIT
    Keyword: DF_BASIS_SCF
    atoms 1, 4-6 entry H          line    18 file /home/vance/anaconda3/envs/p4env/share/psi4/basis/def2-universal-jkfit.gbs 
    atoms 2      entry I          line  4980 file /home/vance/anaconda3/envs/p4env/share/psi4/basis/def2-universal-jkfit.gbs 
    atoms 3      entry N          line   258 file /home/vance/anaconda3/envs/p4env/share/psi4/basis/def2-universal-jkfit.gbs 

  ==> Integral Setup <==

  ==> DiskDFJK: Density-Fitted J/K Matrices <==

    J tasked:                  Yes
    K tasked:                  Yes
    wK tasked:                  No
    OpenMP threads:              4
    Integrals threads:           4
    Memory [MiB]:             5722
    Algorithm:                Core
    Integral Cache:           SAVE
    Schwarz Cutoff:          1E-12
    Fitting Condition:       1E-10

   => Auxiliary Basis Set <=

  Basis Set: (THIS_BASIS AUX)
    Blend: DEF2-UNIVERSAL-JKFIT
    Number of shells: 95
    Number of basis functions: 367
    Number of Cartesian functions: 482
    Spherical Harmonics?: true
    Max angular momentum: 5

  Minimum eigenvalue in the overlap matrix is 1.0376522430E-04.
  Reciprocal condition number of the overlap matrix is 1.2128407584E-05.
    Using symmetric orthogonalization.

  ==> Pre-Iterations <==

  SCF Guess: Superposition of Atomic Densities via on-the-fly atomic UHF (no occupation information).

   -------------------------
    Irrep   Nso     Nmo    
   -------------------------
     A        259     259 
   -------------------------
    Total     259     259
   -------------------------

  ==> Iterations <==

                           Total Energy        Delta E     RMS |[F,P]|

   @DF-RHF iter SAD:   -55.65018755194340   -5.56502e+01   0.00000e+00 
   @DF-RHF iter   1:   -56.13001014282315   -4.79823e-01   1.77360e-03 DIIS/ADIIS
   @DF-RHF iter   2:   -56.19688147043239   -6.68713e-02   1.02238e-03 DIIS/ADIIS
   @DF-RHF iter   3:   -56.22373151247715   -2.68500e-02   9.46862e-05 DIIS
   @DF-RHF iter   4:   -56.22435791436355   -6.26402e-04   1.75521e-05 DIIS
   @DF-RHF iter   5:   -56.22437828841840   -2.03741e-05   3.27023e-06 DIIS
   @DF-RHF iter   6:   -56.22437949597775   -1.20756e-06   8.45454e-07 DIIS
   @DF-RHF iter   7:   -56.22437958128037   -8.53026e-08   1.87602e-07 DIIS
   @DF-RHF iter   8:   -56.22437958579782   -4.51745e-09   2.97848e-08 DIIS
   @DF-RHF iter   9:   -56.22437958591022   -1.12401e-10   8.38746e-09 DIIS
  Energy and wave function converged.


  ==> Post-Iterations <==

    Orbital Energies [Eh]
    ---------------------

    Doubly Occupied:                                                      

       1A    -15.538046     2A     -1.137949     3A     -0.631741  
       4A     -0.631737     5A     -0.422824  

    Virtual:                                                              

       6A      0.093447     7A      0.110084     8A      0.139799  
       9A      0.139799    10A      0.169737    11A      0.169739  
      12A      0.185656    13A      0.312525    14A      0.312525  
      15A      0.316761    16A      0.348014    17A      0.425873  
      18A      0.425875    19A      0.435193    20A      0.450304  
      21A      0.450321    22A      0.500743    23A      0.510455  
      24A      0.510456    25A      0.528693    26A      0.528696  
      27A      0.529617    28A      0.586708    29A      0.586716  
      30A      0.653293    31A      0.733125    32A      0.867534  
      33A      0.880639    34A      0.888339    35A      0.888367  
      36A      0.923736    37A      0.923741    38A      0.990097  
      39A      1.034402    40A      1.034405    41A      1.053781  
      42A      1.054167    43A      1.091271    44A      1.091288  
      45A      1.112295    46A      1.112309    47A      1.178286  
      48A      1.219133    49A      1.249787    50A      1.249797  
      51A      1.318836    52A      1.328666    53A      1.340380  
      54A      1.340383    55A      1.361115    56A      1.361120  
      57A      1.368641    58A      1.396564    59A      1.396575  
      60A      1.407333    61A      1.407334    62A      1.426411  
      63A      1.592153    64A      1.592171    65A      1.593427  
      66A      1.787047    67A      1.937839    68A      1.937858  
      69A      1.995820    70A      2.172428    71A      2.234644  
      72A      2.234664    73A      2.315601    74A      2.315621  
      75A      2.341111    76A      2.394893    77A      2.476489  
      78A      2.476493    79A      2.562164    80A      2.562172  
      81A      2.605092    82A      2.605102    83A      2.624269  
      84A      2.624269    85A      2.624913    86A      2.625470  
      87A      2.638097    88A      2.638114    89A      2.644937  
      90A      2.754849    91A      2.767230    92A      2.767263  
      93A      2.846319    94A      2.901654    95A      2.901668  
      96A      2.909718    97A      2.939020    98A      2.939051  
      99A      3.041167   100A      3.155876   101A      3.155911  
     102A      3.177923   103A      3.177963   104A      3.178394  
     105A      3.179466   106A      3.189205   107A      3.189208  
     108A      3.223353   109A      3.227517   110A      3.227519  
     111A      3.229589   112A      3.268929   113A      3.268951  
     114A      3.277250   115A      3.346615   116A      3.414074  
     117A      3.414075   118A      3.473297   119A      3.523066  
     120A      3.523078   121A      3.542932   122A      3.542936  
     123A      3.554193   124A      3.641627   125A      3.641629  
     126A      3.702097   127A      3.923082   128A      3.977745  
     129A      3.977760   130A      4.079419   131A      4.161604  
     132A      4.161647   133A      4.201895   134A      4.393036  
     135A      4.393045   136A      4.562682   137A      4.644968  
     138A      4.659460   139A      4.659482   140A      4.764191  
     141A      5.470625   142A      5.470671   143A      5.477639  
     144A      6.154635   145A      6.154644   146A      6.266473  
     147A      6.266485   148A      6.319782   149A      6.369222  
     150A      6.375234   151A      6.382880   152A      6.382900  
     153A      6.449825   154A      6.578913   155A      6.578939  
     156A      6.780645   157A      6.903154   158A      6.903219  
     159A      6.967340   160A      7.045289   161A      7.045306  
     162A      7.263973   163A      7.337254   164A      7.401738  
     165A      7.401760   166A      7.611446   167A      7.611471  
     168A      7.658502   169A      7.658558   170A      7.670568  
     171A      7.712104   172A      7.712106   173A      7.885258  
     174A      8.020534   175A      8.020564   176A      8.051151  
     177A      8.127431   178A      8.154768   179A      8.154778  
     180A      8.306562   181A      8.354588   182A      8.399049  
     183A      8.399072   184A      8.524001   185A      8.571226  
     186A      8.571262   187A      8.632620   188A      8.657702  
     189A      8.738624   190A      8.770342   191A      8.770363  
     192A      8.904332   193A      8.904352   194A      8.968787  
     195A      8.968799   196A      9.048579   197A      9.048584  
     198A      9.076347   199A      9.239744   200A      9.239785  
     201A      9.240882   202A      9.518099   203A      9.518117  
     204A      9.670825   205A      9.670833   206A      9.729516  
     207A     10.042310   208A     10.071541   209A     10.071549  
     210A     10.107382   211A     10.177633   212A     10.177638  
     213A     10.264176   214A     10.317186   215A     10.547336  
     216A     10.547339   217A     10.595112   218A     10.595219  
     219A     10.602872   220A     10.602873   221A     10.692896  
     222A     10.791075   223A     10.791076   224A     11.001295  
     225A     11.404810   226A     11.658745   227A     11.722985  
     228A     11.723023   229A     12.154356   230A     12.154364  
     231A     12.159355   232A     12.345624   233A     12.345680  
     234A     12.470138   235A     13.856911   236A     13.856912  
     237A     14.573035   238A     14.692977   239A     14.692978  
     240A     14.766889   241A     14.766900   242A     14.890774  
     243A     14.890788   244A     15.407470   245A     15.760323  
     246A     32.653756   247A     32.653832   248A     32.656423  
     249A     32.656424   250A     32.721059   251A     32.721060  
     252A     32.879623   253A     36.401423   254A     39.504453  
     255A     91.299372   256A     91.299372   257A     91.379663  
     258A    168.161068   259A    200.640429  

    Final Occupation by Irrep:
              A 
    DOCC [     5 ]
    NA   [     5 ]
    NB   [     5 ]

  @DF-RHF Final Energy:   -56.22437958591022

   => Energetics <=

    Nuclear Repulsion Energy =             11.9440531368464367
    One-Electron Energy =                 -99.6122686487775439
    Two-Electron Energy =                  31.4438359260208919
    Total Energy =                        -56.2243795859102136

Computation Completed


Properties will be evaluated at   0.000000,   0.000000,   0.000000 [a0]

Properties computed using the SCF density matrix


 Multipole Moments:

 ------------------------------------------------------------------------------------
     Multipole            Electronic (a.u.)      Nuclear  (a.u.)        Total (a.u.)
 ------------------------------------------------------------------------------------

 L = 1.  Multiply by 2.5417464519 to convert [e a0] to [Debye]
 Dipole X            :          4.7816366           -4.8317624           -0.0501258
 Dipole Y            :         -4.8113700            4.8618180            0.0504481
 Dipole Z            :        -56.3001511           56.8911443            0.5909932
 Magnitude           :                                                    0.5952567

 ------------------------------------------------------------------------------------

*** tstop() called on cmpsrv002 at Thu Sep 19 13:58:36 2024
Module time:
	user time   =      16.63 seconds =       0.28 minutes
	system time =       2.18 seconds =       0.04 minutes
	total time  =         25 seconds =       0.42 minutes
Total time:
	user time   =      49.87 seconds =       0.83 minutes
	system time =       6.43 seconds =       0.11 minutes
	total time  =         71 seconds =       1.18 minutes

         ---------------------------------------------------------
                        SAPT(DFT): delta HF Segment                

                   by Daniel G. A. Smith and Rob Parrish           
         ---------------------------------------------------------


  ==> Preparing SAPT Data Cache <== 

  ==> DiskDFJK: Density-Fitted J/K Matrices <==

    J tasked:                  Yes
    K tasked:                  Yes
    wK tasked:                  No
    OpenMP threads:              4
    Integrals threads:           4
    Memory [MiB]:             5722
    Algorithm:                Core
    Integral Cache:           SAVE
    Schwarz Cutoff:          1E-12
    Fitting Condition:       1E-10

   => Auxiliary Basis Set <=

  Basis Set: (THIS_BASIS AUX)
    Blend: DEF2-UNIVERSAL-JKFIT
    Number of shells: 95
    Number of basis functions: 367
    Number of Cartesian functions: 482
    Spherical Harmonics?: true
    Max angular momentum: 5


  ==> E10 Electostatics <== 

    Elst10,r                        -43.81530873 [mEh]

  ==> E10 Exchange <== 

    Exch10(S^2)                      72.68439732 [mEh]
    Exch10                           77.29194227 [mEh]

  ==> E20 Induction <== 

   => Uncoupled Induction <= 

    Ind20,u (A<-B)                  -16.37616901 [mEh]
    Ind20,u (A->B)                  -12.04734407 [mEh]
    Ind20,u                         -28.42351307 [mEh]
    Exch-Ind20,u (A<-B)              11.62559977 [mEh]
    Exch-Ind20,u (A->B)               3.22418754 [mEh]
    Exch-Ind20,u                     14.84978731 [mEh]
    Exch-Ind20,u (A<-B) (S^inf)      13.22939643 [mEh]
    Exch-Ind20,u (A->B) (S^inf)       4.31573833 [mEh]
    Exch-Ind20,u (S^inf)             17.54513476 [mEh]

   => Coupled Induction <= 

   ---------------------------------------------------
              SAPT Coupled Induction Solver           
   ---------------------------------------------------
    Maxiter             =          20
    Convergence         =   1.000E-06
   ---------------------------------------------------
     Iter       (A<-B)           (B->A)      Time [s]
   ---------------------------------------------------
    Guess    1.397514e-01     1.895797e-01          1
        1    7.177543e-02     4.732827e-02          2
        2    8.818299e-03     1.214290e-02          4
        3    2.049778e-03     4.096197e-03          5
        4    3.102498e-04     8.479990e-04          6
        5    5.118849e-05     1.490908e-04          7
        6    1.954385e-05     2.128754e-05          8
        7    5.294970e-06     3.809319e-06          8
        8    7.169454e-07*    7.056790e-07*         9
   ---------------------------------------------------

    Ind20,r (A<-B)                  -19.14881291 [mEh]
    Ind20,r (A->B)                  -15.56939553 [mEh]
    Ind20,r                         -34.71820844 [mEh]
    Exch-Ind20,r (A<-B)              14.27785874 [mEh]
    Exch-Ind20,r (A->B)               5.01911890 [mEh]
    Exch-Ind20,r                     19.29697764 [mEh]
    Exch-Ind20,r (A<-B) (S^inf)      16.29415078 [mEh]
    Exch-Ind20,r (A->B) (S^inf)       6.64338622 [mEh]
    Exch-Ind20,r (S^inf)             22.93753701 [mEh]

   Partial SAPT(HF) Results, to compute Delta HF (dHF)
  ---------------------------------------------------------------------------------------------------------
    Electrostatics                  -43.81530873 [mEh]    -27.49452133 [kcal/mol]   -115.03707723 [kJ/mol]
      Elst10,r                      -43.81530873 [mEh]    -27.49452133 [kcal/mol]   -115.03707723 [kJ/mol]

    Exchange                         77.29194227 [mEh]     48.50142602 [kcal/mol]    202.92996648 [kJ/mol]
      Exch10                         77.29194227 [mEh]     48.50142602 [kcal/mol]    202.92996648 [kJ/mol]
      Exch10(S^2)                    72.68439732 [mEh]     45.61014791 [kcal/mol]    190.83285888 [kJ/mol]

    Induction (no dHF)              -15.42123080 [mEh]     -9.67696842 [kcal/mol]    -40.48843588 [kJ/mol]
      Ind20,r                       -34.71820844 [mEh]    -21.78600471 [kcal/mol]    -91.15264370 [kJ/mol]
      Exch-Ind20,r                   19.29697764 [mEh]     12.10903629 [kcal/mol]     50.66420783 [kJ/mol]
      Induction (A<-B) (no dHF)      -4.87095417 [mEh]     -3.05656989 [kcal/mol]    -12.78868842 [kJ/mol]
      Induction (A->B) (no dHF)     -10.55027662 [mEh]     -6.62039853 [kcal/mol]    -27.69974746 [kJ/mol]

    Subtotal SAPT(HF)                18.05540274 [mEh]     11.32993627 [kcal/mol]     47.40445337 [kJ/mol]
    Total HF                         -4.15660666 [mEh]     -2.60831006 [kcal/mol]    -10.91316928 [kJ/mol]
    Delta HF                        -22.21200940 [mEh]    -13.93824633 [kcal/mol]    -58.31762265 [kJ/mol]
  ---------------------------------------------------------------------------------------------------------
   Partial SAPT(HF) Results, alternate SAPT0-like display
  ---------------------------------------------------------------------------------------------------------
    Induction                       -37.63324020 [mEh]    -23.61521475 [kcal/mol]    -98.80605853 [kJ/mol]
      Ind20,r                       -34.71820844 [mEh]    -21.78600471 [kcal/mol]    -91.15264370 [kJ/mol]
      Exch-Ind20,r                   19.29697764 [mEh]     12.10903629 [kcal/mol]     50.66420783 [kJ/mol]
      delta HF,r (2)                -22.21200940 [mEh]    -13.93824633 [kcal/mol]    -58.31762265 [kJ/mol]
      Induction (A<-B)              -11.88684553 [mEh]     -7.45910818 [kcal/mol]    -31.20890864 [kJ/mol]
      Induction (A->B)              -25.74639467 [mEh]    -16.15610657 [kcal/mol]    -67.59714989 [kJ/mol]
  ---------------------------------------------------------------------------------------------------------
   => Libint2 <=

    Primary   basis highest AM E, G, H:  6, 6, 3
    Auxiliary basis highest AM E, G, H:  7, 7, 4
    Onebody   basis highest AM E, G, H:  -, -, -
    Solid Harmonics ordering:            Gaussian

*** tstart() called on cmpsrv002
*** at Thu Sep 19 13:58:56 2024

   => Loading Basis Set <=

    Name: THIS_BASIS
    Role: ORBITAL
    Keyword: BASIS
    atoms 1, 4-6 entry H          line    15 file /home/vance/anaconda3/envs/p4env/share/psi4/basis/def2-qzvpp.gbs 
    atoms 2      entry I          line  3401 (ECP: line  4988) file /home/vance/anaconda3/envs/p4env/share/psi4/basis/def2-qzvpp.gbs 
    atoms 3      entry N          line   242 file /home/vance/anaconda3/envs/p4env/share/psi4/basis/def2-qzvpp.gbs 

    !!!  WARNING: ECP capability is in beta. Please check occupations closely.  !!!


         ---------------------------------------------------------
                          SAPT(DFT): DFT Monomer A                 
         ---------------------------------------------------------
                                   SCF
               by Justin Turney, Rob Parrish, Andy Simmonett
                          and Daniel G. A. Smith
                              RKS Reference
                        4 Threads,   7629 MiB Core
         ---------------------------------------------------------

  ==> Geometry <==

    Molecular point group: c1
    Full point group: C1

    Geometry (in Angstrom), charge = 0, multiplicity = 1:

       Center              X                  Y                   Z               Mass       
    ------------   -----------------  -----------------  -----------------  -----------------
         H           -0.111190854293     0.111845331322     1.308145705654     1.007825032230
         I            0.034709145707    -0.034924668678    -0.408664294346   126.904471900000
      Gh(N)          -0.246940854293     0.248475331322     2.907455705654    14.003074004430
      Gh(H)           0.043109145707    -0.612104668678     3.354135705654     1.007825032230
      Gh(H)           0.337049145707     1.004735331322     3.241055705654     1.007825032230
      Gh(H)          -1.208430854293     0.440805331322     3.158115705654     1.007825032230

  Running in c1 symmetry.

  Rotational constants: A =      6.16453  B =      0.09517  C =      0.09517 [cm^-1]
  Rotational constants: A = 184807.84208  B =   2853.15135  C =   2853.15090 [MHz]
  Nuclear repulsion =    7.650438279290174

  Charge       = 0
  Multiplicity = 1
  Electrons    = 26
  Nalpha       = 13
  Nbeta        = 13

  ==> Algorithm <==

  SCF Algorithm Type is DF.
  DIIS enabled.
  MOM disabled.
  Fractional occupation disabled.
  Guess Type is SAD.
  Energy threshold   = 1.00e-08
  Density threshold  = 1.00e-08
  Integral threshold = 1.00e-12

  ==> Primary Basis <==

  Basis Set: THIS_BASIS
    Blend: DEF2-QZVPP
    Number of shells: 79
    Number of basis functions: 259
    Number of Cartesian functions: 316
    Spherical Harmonics?: true
    Max angular momentum: 4

  Core potential: THIS_BASIS
    Number of shells: 4
    Number of ECP primitives: 29
    Number of ECP core electrons: 28
    Max angular momentum: 3

  ==> DFT Potential <==

   => LibXC <=

    Version 6.2.2
    S. Lehtola, C. Steigemann, M. J.T. Oliveira, and M. A.L. Marques.,  SoftwareX 7, 15 (2018) (10.1016/j.softx.2017.11.002)

   => Composite Functional: PBE0 <= 

    PBE0 Hyb-GGA Exchange-Correlation Functional

    C. Adamo and V. Barone.,  J. Chem. Phys. 110, 6158 (1999) (10.1063/1.478522)
    M. Ernzerhof and G. E. Scuseria.,  J. Chem. Phys. 110, 5029 (1999) (10.1063/1.478401)

    Deriv               =              1
    GGA                 =           TRUE
    Meta                =          FALSE

    Exchange Hybrid     =           TRUE
    MP2 Hybrid          =          FALSE

   => Exchange Functionals <=

    0.7500   Perdew, Burke & Ernzerhof

   => Exact (HF) Exchange <=

    0.2500               HF 

   => Correlation Functionals <=

    1.0000   Perdew, Burke & Ernzerhof

   => LibXC Density Thresholds  <==

    XC_HYB_GGA_XC_PBEH:  1.00E-15 

   => Asymptotic Correction <=

    X Functional        =    XC_GGA_X_LB
    C Functional        =   XC_LDA_C_VWN
    Bulk Shift          =       0.094577
    GRAC Alpha          =       0.500000
    GRAC Beta           =      40.000000

   => Molecular Quadrature <=

    Radial Scheme          =       TREUTLER
    Pruning Scheme         =           NONE
    Nuclear Scheme         =       TREUTLER

    Blocking Scheme        =         OCTREE
    BS radius alpha        =              1
    Pruning alpha          =              1
    Radial Points          =             75
    Spherical Points       =            302
    Total Points           =         130199
    Total Blocks           =           1035
    Max Points             =            256
    Max Functions          =            250
    Weights Tolerance      =       1.00E-15

   => Loading Basis Set <=

    Name: (THIS_BASIS AUX)
    Role: JKFIT
    Keyword: DF_BASIS_SCF
    atoms 1, 4-6 entry H          line    18 file /home/vance/anaconda3/envs/p4env/share/psi4/basis/def2-universal-jkfit.gbs 
    atoms 2      entry I          line  4980 file /home/vance/anaconda3/envs/p4env/share/psi4/basis/def2-universal-jkfit.gbs 
    atoms 3      entry N          line   258 file /home/vance/anaconda3/envs/p4env/share/psi4/basis/def2-universal-jkfit.gbs 

  ==> Integral Setup <==

  ==> DiskDFJK: Density-Fitted J/K Matrices <==

    J tasked:                  Yes
    K tasked:                  Yes
    wK tasked:                  No
    OpenMP threads:              4
    Integrals threads:           4
    Memory [MiB]:             4940
    Algorithm:                Core
    Integral Cache:           SAVE
    Schwarz Cutoff:          1E-12
    Fitting Condition:       1E-10

   => Auxiliary Basis Set <=

  Basis Set: (THIS_BASIS AUX)
    Blend: DEF2-UNIVERSAL-JKFIT
    Number of shells: 95
    Number of basis functions: 367
    Number of Cartesian functions: 482
    Spherical Harmonics?: true
    Max angular momentum: 5

  Cached 100.0% of DFT collocation blocks in 0.763 [GiB].

  Minimum eigenvalue in the overlap matrix is 1.0376522430E-04.
  Reciprocal condition number of the overlap matrix is 1.2128407584E-05.
    Using symmetric orthogonalization.

  ==> Pre-Iterations <==

  SCF Guess: Superposition of Atomic Densities via on-the-fly atomic UHF (no occupation information).

   -------------------------
    Irrep   Nso     Nmo    
   -------------------------
     A        259     259 
   -------------------------
    Total     259     259
   -------------------------

  ==> Iterations <==

                           Total Energy        Delta E     RMS |[F,P]|

   @DF-RKS iter SAD:  -295.72333885132144   -2.95723e+02   0.00000e+00 
   @DF-RKS iter   1:  -297.78467231944489   -2.06133e+00   4.28631e-03 DIIS/ADIIS
   @DF-RKS iter   2:  -297.78209200310374    2.58032e-03   4.68367e-03 DIIS/ADIIS
   @DF-RKS iter   3:  -298.30860365553713   -5.26512e-01   5.04312e-04 DIIS/ADIIS
   @DF-RKS iter   4:  -298.31067014397149   -2.06649e-03   4.66660e-04 DIIS/ADIIS
   @DF-RKS iter   5:  -298.31510252403780   -4.43238e-03   2.65167e-05 DIIS
   @DF-RKS iter   6:  -298.31513119473959   -2.86707e-05   8.79698e-06 DIIS
   @DF-RKS iter   7:  -298.31513466171037   -3.46697e-06   4.05888e-07 DIIS
   @DF-RKS iter   8:  -298.31513460121243    6.04979e-08   1.14286e-07 DIIS
   @DF-RKS iter   9:  -298.31513460451180   -3.29936e-09   5.04672e-08 DIIS
   @DF-RKS iter  10:  -298.31513460556175   -1.04995e-09   6.84930e-09 DIIS
  Energy and wave function converged.


  ==> Post-Iterations <==

   Electrons on quadrature grid:
      Ntotal   =   25.9999987976 ; deviation = -1.202e-06 

    Orbital Energies [Eh]
    ---------------------

    Doubly Occupied:                                                      

       1A     -7.006242     2A     -5.021194     3A     -5.009447  
       4A     -5.009447     5A     -2.048223     6A     -2.044187  
       7A     -2.044187     8A     -2.034070     9A     -2.034070  
      10A     -0.817464    11A     -0.505689    12A     -0.385870  
      13A     -0.385870  

    Virtual:                                                              

      14A     -0.150841    15A     -0.036047    16A     -0.005284  
      17A      0.005368    18A      0.005374    19A      0.045447  
      20A      0.045448    21A      0.054348    22A      0.077728  
      23A      0.077731    24A      0.096559    25A      0.096566  
      26A      0.173546    27A      0.182052    28A      0.209846  
      29A      0.209855    30A      0.261361    31A      0.361561  
      32A      0.400585    33A      0.400606    34A      0.424720  
      35A      0.424722    36A      0.504926    37A      0.504928  
      38A      0.517151    39A      0.518506    40A      0.522555  
      41A      0.557160    42A      0.557162    43A      0.594043  
      44A      0.636287    45A      0.681812    46A      0.681814  
      47A      0.697594    48A      0.697596    49A      0.708632  
      50A      0.708638    51A      0.738185    52A      0.783952  
      53A      0.783957    54A      0.792601    55A      0.823874  
      56A      0.866508    57A      0.866845    58A      0.866876  
      59A      0.907385    60A      0.967485    61A      0.967509  
      62A      1.047071    63A      1.077971    64A      1.077974  
      65A      1.125532    66A      1.164316    67A      1.164321  
      68A      1.167966    69A      1.168021    70A      1.187028  
      71A      1.187035    72A      1.237502    73A      1.237509  
      74A      1.282858    75A      1.338877    76A      1.407177  
      77A      1.407182    78A      1.434528    79A      1.606067  
      80A      1.606068    81A      1.733740    82A      1.733930  
      83A      1.739257    84A      1.744777    85A      1.744777  
      86A      1.870525    87A      1.870529    88A      1.934987  
      89A      2.009042    90A      2.045581    91A      2.045595  
      92A      2.162893    93A      2.162922    94A      2.221791  
      95A      2.221795    96A      2.314454    97A      2.339974  
      98A      2.389445    99A      2.389456   100A      2.413609  
     101A      2.413616   102A      2.474416   103A      2.474432  
     104A      2.497218   105A      2.497233   106A      2.547692  
     107A      2.610116   108A      2.610154   109A      2.614353  
     110A      2.704689   111A      2.704699   112A      2.724816  
     113A      2.747821   114A      2.759827   115A      2.759830  
     116A      2.848441   117A      2.848455   118A      2.892392  
     119A      2.895796   120A      2.895874   121A      2.925498  
     122A      2.949025   123A      2.996847   124A      2.996849  
     125A      3.081390   126A      3.168091   127A      3.168092  
     128A      3.172345   129A      3.173000   130A      3.237826  
     131A      3.237864   132A      3.288348   133A      3.312604  
     134A      3.312613   135A      3.325409   136A      3.343857  
     137A      3.568370   138A      3.568378   139A      3.621854  
     140A      3.621861   141A      3.626040   142A      3.751821  
     143A      4.002043   144A      4.002076   145A      4.169946  
     146A      4.232589   147A      4.292068   148A      4.382788  
     149A      4.382795   150A      4.537181   151A      4.898691  
     152A      4.898700   153A      5.274283   154A      5.666869  
     155A      5.678592   156A      5.773271   157A      5.773282  
     158A      5.913470   159A      5.913493   160A      6.023216  
     161A      6.158664   162A      6.158692   163A      6.333528  
     164A      6.333536   165A      6.410555   166A      6.501302  
     167A      6.501320   168A      6.760370   169A      6.760452  
     170A      6.776486   171A      6.930039   172A      7.054061  
     173A      7.054079   174A      7.242845   175A      7.357308  
     176A      7.357353   177A      7.512833   178A      7.545584  
     179A      7.607313   180A      7.607314   181A      7.756269  
     182A      7.756321   183A      7.808696   184A      7.868737  
     185A      7.868858   186A      7.982413   187A      8.051102  
     188A      8.051120   189A      8.141682   190A      8.316692  
     191A      8.316716   192A      8.370442   193A      8.474171  
     194A      8.474183   195A      8.507719   196A      8.507746  
     197A      8.602126   198A      8.652478   199A      8.652495  
     200A      8.657666   201A      8.840594   202A      8.884233  
     203A      8.884242   204A      8.932264   205A      9.051205  
     206A      9.099895   207A      9.099904   208A      9.114205  
     209A      9.253610   210A      9.253615   211A      9.342028  
     212A      9.545928   213A      9.633469   214A      9.633515  
     215A      9.742934   216A      9.925315   217A      9.925346  
     218A      9.931609   219A     10.178665   220A     10.178668  
     221A     10.214417   222A     10.585061   223A     10.585073  
     224A     10.904479   225A     10.904496   226A     11.036895  
     227A     11.329660   228A     11.329661   229A     11.331838  
     230A     11.331981   231A     11.447030   232A     11.447030  
     233A     11.652885   234A     11.682701   235A     11.682703  
     236A     11.918944   237A     12.200091   238A     12.200162  
     239A     12.609580   240A     13.529318   241A     13.725768  
     242A     13.725797   243A     14.035186   244A     14.104572  
     245A     14.126439   246A     14.126462   247A     14.425693  
     248A     14.425737   249A     14.467493   250A     15.941781  
     251A     18.132567   252A     18.132638   253A     25.406692  
     254A     39.531032   255A     39.531032   256A     39.678151  
     257A     70.179800   258A     78.443362   259A    318.575424  

    Final Occupation by Irrep:
              A 
    DOCC [    13 ]
    NA   [    13 ]
    NB   [    13 ]

  @DF-RKS Final Energy:  -298.31513460556175

   => Energetics <=

    Nuclear Repulsion Energy =              7.6504382792901735
    One-Electron Energy =                -533.7189551899369917
    Two-Electron Energy =                 244.9374615622595854
    DFT Exchange-Correlation Energy =     -17.1840792571744991
    Empirical Dispersion Energy =           0.0000000000000000
    VV10 Nonlocal Energy =                  0.0000000000000000
    Total Energy =                       -298.3151346055617523

Computation Completed


Properties will be evaluated at   0.000000,   0.000000,   0.000000 [a0]

Properties computed using the SCF density matrix


 Multipole Moments:

 ------------------------------------------------------------------------------------
     Multipole            Electronic (a.u.)      Nuclear  (a.u.)        Total (a.u.)
 ------------------------------------------------------------------------------------

 L = 1.  Multiply by 2.5417464519 to convert [e a0] to [Debye]
 Dipole X            :         -1.4453151            1.4296492           -0.0156659
 Dipole Y            :          1.4543482           -1.4385944            0.0157538
 Dipole Z            :         17.0188569          -16.8345527            0.1843041
 Magnitude           :                                                    0.1856384

 ------------------------------------------------------------------------------------

*** tstop() called on cmpsrv002 at Thu Sep 19 14:00:02 2024
Module time:
	user time   =      57.03 seconds =       0.95 minutes
	system time =       4.12 seconds =       0.07 minutes
	total time  =         66 seconds =       1.10 minutes
Total time:
	user time   =     128.81 seconds =       2.15 minutes
	system time =      11.31 seconds =       0.19 minutes
	total time  =        157 seconds =       2.62 minutes
   => Libint2 <=

    Primary   basis highest AM E, G, H:  6, 6, 3
    Auxiliary basis highest AM E, G, H:  7, 7, 4
    Onebody   basis highest AM E, G, H:  -, -, -
    Solid Harmonics ordering:            Gaussian

*** tstart() called on cmpsrv002
*** at Thu Sep 19 14:00:02 2024

   => Loading Basis Set <=

    Name: THIS_BASIS
    Role: ORBITAL
    Keyword: BASIS
    atoms 1, 4-6 entry H          line    15 file /home/vance/anaconda3/envs/p4env/share/psi4/basis/def2-qzvpp.gbs 
    atoms 2      entry I          line  3401 (ECP: line  4988) file /home/vance/anaconda3/envs/p4env/share/psi4/basis/def2-qzvpp.gbs 
    atoms 3      entry N          line   242 file /home/vance/anaconda3/envs/p4env/share/psi4/basis/def2-qzvpp.gbs 

    !!!  WARNING: ECP capability is in beta. Please check occupations closely.  !!!


         ---------------------------------------------------------
                          SAPT(DFT): DFT Monomer B                 
         ---------------------------------------------------------
                                   SCF
               by Justin Turney, Rob Parrish, Andy Simmonett
                          and Daniel G. A. Smith
                              RKS Reference
                        4 Threads,   7629 MiB Core
         ---------------------------------------------------------

  ==> Geometry <==

    Molecular point group: c1
    Full point group: C1

    Geometry (in Angstrom), charge = 0, multiplicity = 1:

       Center              X                  Y                   Z               Mass       
    ------------   -----------------  -----------------  -----------------  -----------------
      Gh(H)          -0.111190854293     0.111845331322     1.308145705654     1.007825032230
      Gh(I)           0.034709145707    -0.034924668678    -0.408664294346   126.904471900000
         N           -0.246940854293     0.248475331322     2.907455705654    14.003074004430
         H            0.043109145707    -0.612104668678     3.354135705654     1.007825032230
         H            0.337049145707     1.004735331322     3.241055705654     1.007825032230
         H           -1.208430854293     0.440805331322     3.158115705654     1.007825032230

  Running in c1 symmetry.

  Rotational constants: A =      6.16453  B =      0.09517  C =      0.09517 [cm^-1]
  Rotational constants: A = 184807.84208  B =   2853.15135  C =   2853.15090 [MHz]
  Nuclear repulsion =   11.944053136846437

  Charge       = 0
  Multiplicity = 1
  Electrons    = 10
  Nalpha       = 5
  Nbeta        = 5

  ==> Algorithm <==

  SCF Algorithm Type is DF.
  DIIS enabled.
  MOM disabled.
  Fractional occupation disabled.
  Guess Type is SAD.
  Energy threshold   = 1.00e-08
  Density threshold  = 1.00e-08
  Integral threshold = 1.00e-12

  ==> Primary Basis <==

  Basis Set: THIS_BASIS
    Blend: DEF2-QZVPP
    Number of shells: 79
    Number of basis functions: 259
    Number of Cartesian functions: 316
    Spherical Harmonics?: true
    Max angular momentum: 4

  Core potential: THIS_BASIS
    Number of shells: 4
    Number of ECP primitives: 29
    Number of ECP core electrons: 0
    Max angular momentum: 3

  ==> DFT Potential <==

   => LibXC <=

    Version 6.2.2
    S. Lehtola, C. Steigemann, M. J.T. Oliveira, and M. A.L. Marques.,  SoftwareX 7, 15 (2018) (10.1016/j.softx.2017.11.002)

   => Composite Functional: PBE0 <= 

    PBE0 Hyb-GGA Exchange-Correlation Functional

    C. Adamo and V. Barone.,  J. Chem. Phys. 110, 6158 (1999) (10.1063/1.478522)
    M. Ernzerhof and G. E. Scuseria.,  J. Chem. Phys. 110, 5029 (1999) (10.1063/1.478401)

    Deriv               =              1
    GGA                 =           TRUE
    Meta                =          FALSE

    Exchange Hybrid     =           TRUE
    MP2 Hybrid          =          FALSE

   => Exchange Functionals <=

    0.7500   Perdew, Burke & Ernzerhof

   => Exact (HF) Exchange <=

    0.2500               HF 

   => Correlation Functionals <=

    1.0000   Perdew, Burke & Ernzerhof

   => LibXC Density Thresholds  <==

    XC_HYB_GGA_XC_PBEH:  1.00E-15 

   => Asymptotic Correction <=

    X Functional        =    XC_GGA_X_LB
    C Functional        =   XC_LDA_C_VWN
    Bulk Shift          =       0.113162
    GRAC Alpha          =       0.500000
    GRAC Beta           =      40.000000

   => Molecular Quadrature <=

    Radial Scheme          =       TREUTLER
    Pruning Scheme         =           NONE
    Nuclear Scheme         =       TREUTLER

    Blocking Scheme        =         OCTREE
    BS radius alpha        =              1
    Pruning alpha          =              1
    Radial Points          =             75
    Spherical Points       =            302
    Total Points           =         130199
    Total Blocks           =           1035
    Max Points             =            256
    Max Functions          =            250
    Weights Tolerance      =       1.00E-15

   => Loading Basis Set <=

    Name: (THIS_BASIS AUX)
    Role: JKFIT
    Keyword: DF_BASIS_SCF
    atoms 1, 4-6 entry H          line    18 file /home/vance/anaconda3/envs/p4env/share/psi4/basis/def2-universal-jkfit.gbs 
    atoms 2      entry I          line  4980 file /home/vance/anaconda3/envs/p4env/share/psi4/basis/def2-universal-jkfit.gbs 
    atoms 3      entry N          line   258 file /home/vance/anaconda3/envs/p4env/share/psi4/basis/def2-universal-jkfit.gbs 

  ==> Integral Setup <==

  ==> DiskDFJK: Density-Fitted J/K Matrices <==

    J tasked:                  Yes
    K tasked:                  Yes
    wK tasked:                  No
    OpenMP threads:              4
    Integrals threads:           4
    Memory [MiB]:             4940
    Algorithm:                Core
    Integral Cache:           SAVE
    Schwarz Cutoff:          1E-12
    Fitting Condition:       1E-10

   => Auxiliary Basis Set <=

  Basis Set: (THIS_BASIS AUX)
    Blend: DEF2-UNIVERSAL-JKFIT
    Number of shells: 95
    Number of basis functions: 367
    Number of Cartesian functions: 482
    Spherical Harmonics?: true
    Max angular momentum: 5

  Cached 100.0% of DFT collocation blocks in 0.763 [GiB].

  Minimum eigenvalue in the overlap matrix is 1.0376522430E-04.
  Reciprocal condition number of the overlap matrix is 1.2128407584E-05.
    Using symmetric orthogonalization.

  ==> Pre-Iterations <==

  SCF Guess: Superposition of Atomic Densities via on-the-fly atomic UHF (no occupation information).

   -------------------------
    Irrep   Nso     Nmo    
   -------------------------
     A        259     259 
   -------------------------
    Total     259     259
   -------------------------

  ==> Iterations <==

                           Total Energy        Delta E     RMS |[F,P]|

   @DF-RKS iter SAD:   -56.06835783348562   -5.60684e+01   0.00000e+00 
   @DF-RKS iter   1:   -56.27972803583738   -2.11370e-01   3.00374e-03 DIIS/ADIIS
   @DF-RKS iter   2:   -56.01894289522495    2.60785e-01   3.93867e-03 DIIS/ADIIS
   @DF-RKS iter   3:   -56.51859771616261   -4.99655e-01   2.11502e-04 DIIS/ADIIS
   @DF-RKS iter   4:   -56.52009630132822   -1.49859e-03   1.82473e-05 DIIS
   @DF-RKS iter   5:   -56.52010345866942   -7.15734e-06   4.86233e-06 DIIS
   @DF-RKS iter   6:   -56.52010354808147   -8.94120e-08   1.92294e-07 DIIS
   @DF-RKS iter   7:   -56.52010351528995    3.27915e-08   2.42012e-08 DIIS
   @DF-RKS iter   8:   -56.52010350701387    8.27608e-09   2.87553e-09 DIIS
  Energy and wave function converged.


  ==> Post-Iterations <==

   Electrons on quadrature grid:
      Ntotal   =    9.9999940395 ; deviation = -5.961e-06 

    Orbital Energies [Eh]
    ---------------------

    Doubly Occupied:                                                      

       1A    -14.471240     2A     -0.986464     3A     -0.591365  
       4A     -0.591362     5A     -0.390553  

    Virtual:                                                              

       6A     -0.086047     7A     -0.016397     8A     -0.016395  
       9A      0.006003    10A      0.044752    11A      0.044762  
      12A      0.058090    13A      0.117278    14A      0.117284  
      15A      0.130869    16A      0.187364    17A      0.265082  
      18A      0.265346    19A      0.265348    20A      0.275048  
      21A      0.275059    22A      0.317317    23A      0.333269  
      24A      0.333361    25A      0.383779    26A      0.383792  
      27A      0.414043    28A      0.423734    29A      0.423739  
      30A      0.505390    31A      0.530376    32A      0.613873  
      33A      0.654373    34A      0.654408    35A      0.659338  
      36A      0.699003    37A      0.699007    38A      0.742471  
      39A      0.806067    40A      0.806081    41A      0.872267  
      42A      0.872282    43A      0.943918    44A      0.954668  
      45A      0.956098    46A      0.961228    47A      0.961269  
      48A      1.017051    49A      1.017055    50A      1.027793  
      51A      1.078350    52A      1.090393    53A      1.091883  
      54A      1.091885    55A      1.200002    56A      1.229957  
      57A      1.229980    58A      1.237587    59A      1.237606  
      60A      1.279277    61A      1.287078    62A      1.287078  
      63A      1.363004    64A      1.363015    65A      1.394183  
      66A      1.558369    67A      1.642807    68A      1.642821  
      69A      1.753400    70A      1.916352    71A      1.941580  
      72A      1.941600    73A      2.012159    74A      2.027975  
      75A      2.027986    76A      2.039312    77A      2.144273  
      78A      2.144278    79A      2.228587    80A      2.228606  
      81A      2.306425    82A      2.306427    83A      2.344465  
      84A      2.344490    85A      2.347409    86A      2.444673  
      87A      2.510404    88A      2.510430    89A      2.512258  
      90A      2.513168    91A      2.519217    92A      2.519224  
      93A      2.547062    94A      2.593490    95A      2.611568  
      96A      2.611577    97A      2.679869    98A      2.679891  
      99A      2.687620   100A      2.809349   101A      2.809373  
     102A      2.884649   103A      2.907766   104A      2.907836  
     105A      2.926499   106A      2.946774   107A      2.946824  
     108A      3.059994   109A      3.070589   110A      3.071182  
     111A      3.073126   112A      3.073148   113A      3.093016  
     114A      3.093018   115A      3.190252   116A      3.209691  
     117A      3.269838   118A      3.269845   119A      3.279126  
     120A      3.296062   121A      3.296075   122A      3.369784  
     123A      3.369792   124A      3.490638   125A      3.490640  
     126A      3.493487   127A      3.569372   128A      3.569403  
     129A      3.602591   130A      3.801413   131A      3.837929  
     132A      3.875529   133A      3.875582   134A      3.984098  
     135A      3.984131   136A      4.196879   137A      4.200854  
     138A      4.200878   139A      4.234889   140A      4.488619  
     141A      4.973388   142A      4.973435   143A      5.052767  
     144A      5.730623   145A      5.730630   146A      5.836292  
     147A      5.836306   148A      5.886017   149A      5.921049  
     150A      5.921063   151A      5.979201   152A      6.123197  
     153A      6.142759   154A      6.249175   155A      6.249202  
     156A      6.278175   157A      6.487712   158A      6.524352  
     159A      6.524385   160A      6.562073   161A      6.562079  
     162A      6.822047   163A      6.902667   164A      6.902680  
     165A      6.910824   166A      7.151590   167A      7.151608  
     168A      7.211188   169A      7.228326   170A      7.228339  
     171A      7.290676   172A      7.290733   173A      7.474038  
     174A      7.559634   175A      7.579998   176A      7.580025  
     177A      7.720125   178A      7.720149   179A      7.771035  
     180A      7.831311   181A      7.890402   182A      7.932267  
     183A      7.932301   184A      8.061335   185A      8.112474  
     186A      8.112516   187A      8.153497   188A      8.179436  
     189A      8.283606   190A      8.305240   191A      8.305250  
     192A      8.418412   193A      8.418439   194A      8.515184  
     195A      8.515192   196A      8.574493   197A      8.739565  
     198A      8.739754   199A      8.783808   200A      8.876404  
     201A      8.876424   202A      9.001361   203A      9.001362  
     204A      9.286737   205A      9.286744   206A      9.325730  
     207A      9.492861   208A      9.539393   209A      9.539401  
     210A      9.684214   211A      9.684225   212A      9.776768  
     213A      9.891893   214A      9.945930   215A      9.976260  
     216A      9.976275   217A     10.174761   218A     10.459290  
     219A     10.459498   220A     10.467719   221A     10.467724  
     222A     10.650251   223A     10.650251   224A     10.654364  
     225A     11.072579   226A     11.124552   227A     11.124591  
     228A     11.171007   229A     11.580814   230A     11.580825  
     231A     11.593102   232A     11.767412   233A     11.767467  
     234A     11.894337   235A     13.648228   236A     13.648229  
     237A     14.281250   238A     14.281263   239A     14.358724  
     240A     14.480121   241A     14.480126   242A     14.554883  
     243A     14.554890   244A     15.089476   245A     15.210873  
     246A     32.346070   247A     32.346074   248A     32.346872  
     249A     32.346948   250A     32.407935   251A     32.407937  
     252A     32.565376   253A     36.075314   254A     38.334442  
     255A     90.812049   256A     90.812051   257A     90.875283  
     258A    167.744227   259A    197.837713  

    Final Occupation by Irrep:
              A 
    DOCC [     5 ]
    NA   [     5 ]
    NB   [     5 ]

  @DF-RKS Final Energy:   -56.52010350701387

   => Energetics <=

    Nuclear Repulsion Energy =             11.9440531368464367
    One-Electron Energy =                 -99.6856051741318510
    Two-Electron Energy =                  37.2643355684378790
    DFT Exchange-Correlation Energy =      -6.0428870381663380
    Empirical Dispersion Energy =           0.0000000000000000
    VV10 Nonlocal Energy =                  0.0000000000000000
    Total Energy =                        -56.5201035070138715

Computation Completed


Properties will be evaluated at   0.000000,   0.000000,   0.000000 [a0]

Properties computed using the SCF density matrix


 Multipole Moments:

 ------------------------------------------------------------------------------------
     Multipole            Electronic (a.u.)      Nuclear  (a.u.)        Total (a.u.)
 ------------------------------------------------------------------------------------

 L = 1.  Multiply by 2.5417464519 to convert [e a0] to [Debye]
 Dipole X            :          4.7840306           -4.8317624           -0.0477318
 Dipole Y            :         -4.8137773            4.8618180            0.0480408
 Dipole Z            :        -56.3283701           56.8911443            0.5627742
 Magnitude           :                                                    0.5668342

 ------------------------------------------------------------------------------------

*** tstop() called on cmpsrv002 at Thu Sep 19 14:00:58 2024
Module time:
	user time   =      52.91 seconds =       0.88 minutes
	system time =       2.31 seconds =       0.04 minutes
	total time  =         56 seconds =       0.93 minutes
Total time:
	user time   =     181.74 seconds =       3.03 minutes
	system time =      13.63 seconds =       0.23 minutes
	total time  =        213 seconds =       3.55 minutes

         ---------------------------------------------------------
               SAPT(DFT): Intermolecular Interaction Segment       

                   by Daniel G. A. Smith and Rob Parrish           
         ---------------------------------------------------------

  ==> Algorithm <==

   SAPT DFT Functional             PBE0
   Monomer A GRAC Shift        0.094577
   Monomer B GRAC Shift        0.113162
   Delta HF                        True
   JK Algorithm                      DF

  ==> Preparing SAPT Data Cache <== 

  ==> DiskDFJK: Density-Fitted J/K Matrices <==

    J tasked:                  Yes
    K tasked:                  Yes
    wK tasked:                  No
    OpenMP threads:              4
    Integrals threads:           4
    Memory [MiB]:             4940
    Algorithm:                Core
    Integral Cache:           SAVE
    Schwarz Cutoff:          1E-12
    Fitting Condition:       1E-10

   => Auxiliary Basis Set <=

  Basis Set: (THIS_BASIS AUX)
    Blend: DEF2-UNIVERSAL-JKFIT
    Number of shells: 95
    Number of basis functions: 367
    Number of Cartesian functions: 482
    Spherical Harmonics?: true
    Max angular momentum: 5


  ==> E10 Electostatics <== 

    Elst10,r                        -42.04970935 [mEh]

  ==> E10 Exchange <== 

    Exch10(S^2)                      71.76358666 [mEh]
    Exch10                           76.26054052 [mEh]

  ==> E20 Induction <== 

   => Uncoupled Induction <= 

    Ind20,u (A<-B)                  -19.02144206 [mEh]
    Ind20,u (A->B)                  -15.50718272 [mEh]
    Ind20,u                         -34.52862479 [mEh]
    Exch-Ind20,u (A<-B)              13.37332983 [mEh]
    Exch-Ind20,u (A->B)               4.92030729 [mEh]
    Exch-Ind20,u                     18.29363712 [mEh]
    Exch-Ind20,u (A<-B) (S^inf)      15.21888613 [mEh]
    Exch-Ind20,u (A->B) (S^inf)       6.43032969 [mEh]
    Exch-Ind20,u (S^inf)             21.64921582 [mEh]

   => Coupled Induction <= 

   ---------------------------------------------------
              SAPT Coupled Induction Solver           
   ---------------------------------------------------
    Maxiter             =          20
    Convergence         =   1.000E-06
   ---------------------------------------------------
     Iter       (A<-B)           (B->A)      Time [s]
   ---------------------------------------------------
    Guess    1.908089e-01     1.644994e-01          9
        1    4.653169e-02     5.319044e-02         22
        2    1.437943e-02     2.009759e-02         37
        3    1.930677e-03     1.908906e-03         50
        4    2.111950e-04     1.402203e-04         63
        5    5.531252e-05     1.010740e-05         80
        6    9.072331e-06     1.076497e-06         94
        7    1.221816e-06     1.011974e-07*       109
        8    1.506186e-07*    1.011974e-07*       117
   ---------------------------------------------------

    Ind20,r (A<-B)                  -19.40369989 [mEh]
    Ind20,r (A->B)                  -16.48603426 [mEh]
    Ind20,r                         -35.88973416 [mEh]
    Exch-Ind20,r (A<-B)              14.91929822 [mEh]
    Exch-Ind20,r (A->B)               5.73166486 [mEh]
    Exch-Ind20,r                     20.65096308 [mEh]
    Exch-Ind20,r (A<-B) (S^inf)      16.99790521 [mEh]
    Exch-Ind20,r (A->B) (S^inf)       7.45423872 [mEh]
    Exch-Ind20,r (S^inf)             24.45214392 [mEh]
   => Loading Basis Set <=

    Name: (THIS_BASIS AUX)
    Role: RIFIT
    Keyword: DF_BASIS_MP2
    atoms 1, 4-6 entry H          line    24 file /home/vance/anaconda3/envs/p4env/share/psi4/basis/def2-qzvpp-ri.gbs 
    atoms 2      entry I          line  4948 file /home/vance/anaconda3/envs/p4env/share/psi4/basis/def2-qzvpp-ri.gbs 
    atoms 3      entry N          line   338 file /home/vance/anaconda3/envs/p4env/share/psi4/basis/def2-qzvpp-ri.gbs 



  ==> E20 Dispersion (CHF FDDS) <== 

   Legendre Points:          10
   Lambda Shift:          0.300
   Fxc Kernal:             ALDA
   (P|Fxc|Q) Thresh:  1.000e-06
  DFHelper Memory: AOs need 0.324 GiB; user supplied 5.960 GiB. 
  Using in-core AOs.

  ==> DFHelper <==
    NBF:                             259
    NAux:                            641
    Schwarz Cutoff:                1E-12
    Mask sparsity (%):                 7
    DFH Avail. Memory [GiB]:       5.960
    OpenMP threads:                    4
    Algorithm:                    DIRECT
    AO Core:                        True
    MO Core:                       False
    Hold Metric:                   False
    Metric Power:                  0.000
    Fitting Condition:             1E-12
    Q Shell Max:                      13


  DFHelper Memory: AOs need 0.345 GiB; user supplied 5.960 GiB. 
  Using in-core AOs.


   => Time Integration <= 

       Omega       Weight       Disp20,u         Disp20   time [s]
   2.269e+01    6.667e-02      4.056e-04      3.821e-04          1
   4.147e+00    1.495e-01      6.711e-03      6.069e-03          2
   1.572e+00    2.191e-01      1.904e-02      1.592e-02          3
   7.589e-01    2.693e-01      3.088e-02      2.326e-02          3
   4.049e-01    2.955e-01      3.511e-02      2.379e-02          4
   2.223e-01    2.955e-01      3.028e-02      1.905e-02          5
   1.186e-01    2.693e-01      2.160e-02      1.311e-02          5
   5.727e-02    2.191e-01      1.374e-02      8.230e-03          6
   2.170e-02    1.495e-01      7.745e-03      4.624e-03          6
   3.966e-03    6.667e-02      3.094e-03      1.846e-03          7

    Disp20,u                        -26.83547285 [mEh]
    Disp20                          -18.50842884 [mEh]

  ==> E20 Dispersion (MP2) <== 


    Disp20 (MP2)                    -26.79299015 [mEh]
    Exch-Disp20,u                     5.56525510 [mEh]
    Scaling Scheme                    FIXED
    Scaling Factor                    0.770
    Est. Exch-Disp20,r                4.28524643 [mEh]

   SAPT(DFT) Results
  ---------------------------------------------------------------------------------------------------------
    Electrostatics                  -42.04970934 [mEh]    -26.38659098 [kcal/mol]   -110.40149667 [kJ/mol]
      Elst1,r                       -42.04970934 [mEh]    -26.38659098 [kcal/mol]   -110.40149667 [kJ/mol]

    Exchange                         76.26054052 [mEh]     47.85421165 [kcal/mol]    200.22202155 [kJ/mol]
      Exch1                          76.26054052 [mEh]     47.85421165 [kcal/mol]    200.22202155 [kJ/mol]
      Exch1(S^2)                     71.76358666 [mEh]     45.03233050 [kcal/mol]    188.41527081 [kJ/mol]

    Induction                       -37.45077805 [mEh]    -23.50071803 [kcal/mol]    -98.32700422 [kJ/mol]
      Ind2,r                        -35.88973415 [mEh]    -22.52114819 [kcal/mol]    -94.22848404 [kJ/mol]
      Exch-Ind2,r                    20.65096308 [mEh]     12.95867498 [kcal/mol]     54.21909610 [kJ/mol]
      Induction (A<-B)               -4.48440167 [mEh]     -2.81400453 [kcal/mol]    -11.77379496 [kJ/mol]
      Induction (A->B)              -10.75436940 [mEh]     -6.74846868 [kcal/mol]    -28.23559298 [kJ/mol]
      delta HF,r (2)                -22.21200698 [mEh]    -13.93824481 [kcal/mol]    -58.31761629 [kJ/mol]

    Dispersion                      -14.22318277 [mEh]     -8.92518194 [kcal/mol]    -37.34296123 [kJ/mol]
      Disp2,r                       -18.50842920 [mEh]    -11.61421467 [kcal/mol]    -48.59387418 [kJ/mol]
      Disp2,u                       -26.79299015 [mEh]    -16.81285515 [kcal/mol]    -70.34498594 [kJ/mol]
      Est. Exch-Disp2,r               4.28524643 [mEh]      2.68903273 [kcal/mol]     11.25091295 [kJ/mol]
      Exch-Disp2,u                    5.56525510 [mEh]      3.49225030 [kcal/mol]     14.61157526 [kJ/mol]

    Total SAPT(DFT)                 -17.46312965 [mEh]    -10.95827930 [kcal/mol]    -45.84944058 [kJ/mol]
  ---------------------------------------------------------------------------------------------------------

*** tstop() called on cmpsrv002 at Thu Sep 19 14:33:06 2024
Module time:
	user time   =     616.49 seconds =      10.27 minutes
	system time =      34.77 seconds =       0.58 minutes
	total time  =       2018 seconds =      33.63 minutes
Total time:
	user time   =     724.96 seconds =      12.08 minutes
	system time =      42.91 seconds =       0.72 minutes
	total time  =       2147 seconds =      35.78 minutes

Traceback (most recent call last):
  File "/home/vance/anaconda3/envs/p4env/bin/psi4", line 387, in <module>
    exec(content)
  File "<string>", line 61, in <module>
  File "/home/vance/anaconda3/envs/p4env/lib/python3.12/site-packages/psi4/driver/p4util/python_helpers.py", line 1121, in _core_variable
    raise KeyError(f"psi4.core.variable: Requested variable '{key}' was not set!\n")

KeyError: "psi4.core.variable: Requested variable 'SAPT IND20,R ENERGY' was not set!\n"


Printing out the relevant lines from the Psithon --> Python processed input file:
    eelst = psi4.core.variable('SAPT ELST ENERGY')
    eexch = psi4.core.variable('SAPT EXCH ENERGY')
    eind = psi4.core.variable('SAPT IND ENERGY')
    edisp = psi4.core.variable('SAPT DISP ENERGY')
    esapt = psi4.core.variable('SAPT TOTAL ENERGY')
--> eind20r = psi4.core.variable('SAPT IND20,R ENERGY')
    eexind20r = psi4.core.variable('SAPT EXCH-IND20,R ENERGY')
    eind20u = psi4.core.variable('SAPT IND20,U ENERGY')
    eexind20u = psi4.core.variable('SAPT EXCH-IND20,U ENERGY')
    edisp20 = psi4.core.variable('SAPT DISP20 ENERGY')
    eexdisp20 = psi4.core.variable('SAPT EXCH-DISP20 ENERGY')

!--------------------------------------------------------------------------------!
!                                                                                !
!  "psi4.core.variable: Requested variable 'SAPT IND20,R ENERGY' was not set!\n" !
!                                                                                !
!--------------------------------------------------------------------------------!

    Psi4 stopped on: Thursday, 19 September 2024 02:33PM
    Psi4 wall time for execution: 0:35:46.94

*** Psi4 encountered an error. Buy a developer more coffee!
*** Resources and help at github.com/psi4/psi4.
