
    -----------------------------------------------------------------------
          Psi4: An Open-Source Ab Initio Electronic Structure Package
                               Psi4 1.9.1 release

                         Git: Rev {} zzzzzzz 


    D. G. A. Smith, L. A. Burns, A. C. Simmonett, R. M. Parrish,
    M. C. Schieber, R. Galvelis, P. Kraus, H. Kruse, R. Di Remigio,
    A. Alenaizan, A. M. James, S. Lehtola, J. P. Misiewicz, M. Scheurer,
    R. A. Shaw, J. B. Schriber, Y. Xie, Z. L. Glick, D. A. Sirianni,
    J. S. O'Brien, J. M. Waldrop, A. Kumar, E. G. Hohenstein,
    B. P. Pritchard, B. R. Brooks, H. F. Schaefer III, A. Yu. Sokolov,
    K. Patkowski, A. E. DePrince III, U. Bozkaya, R. A. King,
    F. A. Evangelista, J. M. Turney, T. D. Crawford, C. D. Sherrill,
    J. Chem. Phys. 152(18) 184108 (2020). https://doi.org/10.1063/5.0006002

                            Additional Code Authors
    E. T. Seidl, C. L. Janssen, E. F. Valeev, M. L. Leininger,
    J. F. Gonthier, R. M. Richard, H. R. McAlexander, M. Saitow, X. Wang,
    P. Verma, M. H. Lechner, A. Jiang, S. Behnle, A. G. Heide,
    M. F. Herbst, and D. L. Poole

             Previous Authors, Complete List of Code Contributors,
                       and Citations for Specific Modules
    https://github.com/psi4/psi4/blob/master/codemeta.json
    https://github.com/psi4/psi4/graphs/contributors
    http://psicode.org/psi4manual/master/introduction.html#citing-psifour

    -----------------------------------------------------------------------


    Psi4 started on: Thursday, 19 September 2024 01:57PM

    Process ID: 605186
    Host:       cmpsrv002
    PSIDATADIR: /home/vance/anaconda3/envs/p4env/share/psi4
    Memory:     500.0 MiB
    Threads:    4
    
  ==> Input File <==

--------------------------------------------------------------------------
#charge=0 charge_a=0 charge_b=0 selection_a=1-2 selection_b=3-6 scaling=1.1 benchmark_Eint=-7.834 benchmark_unit=kcal/mol group=XH-N
set_num_threads(4)
memory 8 GB
basis this_basis {
    assign    def2-qzvpp
}

molecule {
     0 1
    --
     0 1
     H       -0.13083        0.13151       -0.43120
     I        0.01507       -0.01526       -2.14801
    --
     0 1
     N       -0.28016        0.28181        1.32804
     H        0.00989       -0.57878        1.77472
     H        0.30384        1.03807        1.66164
     H       -1.24164        0.47414        1.57870
}

set {
    sapt_dft_functional     PBE0
    scf_type                DF
    freeze_core             true
    sapt_dft_grac_shift_a    0.094577
    sapt_dft_grac_shift_b    0.113162
    sapt_dft_do_hybrid      true
    do_ind_exch_sinf        true
    do_disp_exch_sinf       true
}

nrg = energy('sapt(DFT)')

eelst = psi4.variable('SAPT ELST ENERGY')
eexch = psi4.variable('SAPT EXCH ENERGY')
eind = psi4.variable('SAPT IND ENERGY')
edisp = psi4.variable('SAPT DISP ENERGY')
esapt = psi4.variable('SAPT TOTAL ENERGY')
eind20r = psi4.variable('SAPT IND20,R ENERGY')
eexind20r = psi4.variable('SAPT EXCH-IND20,R ENERGY')
eind20u = psi4.variable('SAPT IND20,U ENERGY')
eexind20u = psi4.variable('SAPT EXCH-IND20,U ENERGY')
edisp20 = psi4.variable('SAPT DISP20 ENERGY')
eexdisp20 = psi4.variable('SAPT EXCH-DISP20 ENERGY')
eexch10 = psi4.variable('SAPT EXCH10 ENERGY')
eexch10s2 = psi4.variable('SAPT EXCH10(S^2) ENERGY')
print('sapt elst energy =', eelst)
print('sapt total induction energy =', eind)
print('sapt total dispersion energy =', edisp)
print('sapt total energy =', esapt)
print('sapt ind20,r energy =', eind20r)
print('sapt exch-ind20,r energy =', eexind20r)
print('sapt ind20,u energy =', eind20u)
print('sapt exch-ind20,u energy =', eexind20u)
print('sapt disp20 (u or r?) energy =', edisp20)
print('sapt exch-disp20 (u or r?) energy =', eexdisp20)
print('sapt exch10 (u or r? which s?) energy =', eexch10)
print('sapt exch10 s^2 (u or r?) energy =', eexch10s2)
--------------------------------------------------------------------------
  Threads set to 4 by Python driver.

  Memory set to   7.451 GiB by Python driver.

Scratch directory: /scratch2/vance/psi4/

*** tstart() called on cmpsrv002
*** at Thu Sep 19 13:57:25 2024


         ---------------------------------------------------------
                            SAPT(DFT) Procedure                    

                           by Daniel G. A. Smith                   
         ---------------------------------------------------------

Warning! The default value of SAPT_DFT_EXCH_DISP_SCALE_SCHEME has changed from DISP to FIXED. Please be careful comparing results with earlier versions. 

  ==> Algorithm <==

   SAPT DFT Functional             PBE0
   Monomer A GRAC Shift        0.094577
   Monomer B GRAC Shift        0.113162
   Delta HF                        True
   JK Algorithm                      DF

   Required computations:
     HF  (Dimer)
     HF  (Monomer A)
     HF  (Monomer B)
     DFT (Monomer A)
     DFT (Monomer B)

   => Libint2 <=

    Primary   basis highest AM E, G, H:  6, 6, 3
    Auxiliary basis highest AM E, G, H:  7, 7, 4
    Onebody   basis highest AM E, G, H:  -, -, -
    Solid Harmonics ordering:            Gaussian

*** tstart() called on cmpsrv002
*** at Thu Sep 19 13:57:25 2024

   => Loading Basis Set <=

    Name: THIS_BASIS
    Role: ORBITAL
    Keyword: BASIS
    atoms 1, 4-6 entry H          line    15 file /home/vance/anaconda3/envs/p4env/share/psi4/basis/def2-qzvpp.gbs 
    atoms 2      entry I          line  3401 (ECP: line  4988) file /home/vance/anaconda3/envs/p4env/share/psi4/basis/def2-qzvpp.gbs 
    atoms 3      entry N          line   242 file /home/vance/anaconda3/envs/p4env/share/psi4/basis/def2-qzvpp.gbs 

    !!!  WARNING: ECP capability is in beta. Please check occupations closely.  !!!


         ---------------------------------------------------------
                         SAPT(DFT): delta HF Dimer                 
         ---------------------------------------------------------
                                   SCF
               by Justin Turney, Rob Parrish, Andy Simmonett
                          and Daniel G. A. Smith
                              RHF Reference
                        4 Threads,   7629 MiB Core
         ---------------------------------------------------------

  ==> Geometry <==

    Molecular point group: c1
    Full point group: C1

    Geometry (in Angstrom), charge = 0, multiplicity = 1:

       Center              X                  Y                   Z               Mass       
    ------------   -----------------  -----------------  -----------------  -----------------
         H           -0.109595696151     0.110239530984     1.289358085411     1.007825032230
         I            0.036304303849    -0.036530469016    -0.427451914589   126.904471900000
         N           -0.258925696151     0.260539530984     3.048598085411    14.003074004430
         H            0.031124303849    -0.600050469016     3.495278085411     1.007825032230
         H            0.325074303849     1.016799530984     3.382198085411     1.007825032230
         H           -1.220405696151     0.452869530984     3.299258085411     1.007825032230

  Running in c1 symmetry.

  Rotational constants: A =      6.16450  B =      0.08693  C =      0.08693 [cm^-1]
  Rotational constants: A = 184807.06449  B =   2606.10269  C =   2606.10259 [MHz]
  Nuclear repulsion =   58.832984112711912

  Charge       = 0
  Multiplicity = 1
  Electrons    = 36
  Nalpha       = 18
  Nbeta        = 18

  ==> Algorithm <==

  SCF Algorithm Type is DF.
  DIIS enabled.
  MOM disabled.
  Fractional occupation disabled.
  Guess Type is SAD.
  Energy threshold   = 1.00e-08
  Density threshold  = 1.00e-08
  Integral threshold = 1.00e-12

  ==> Primary Basis <==

  Basis Set: THIS_BASIS
    Blend: DEF2-QZVPP
    Number of shells: 79
    Number of basis functions: 259
    Number of Cartesian functions: 316
    Spherical Harmonics?: true
    Max angular momentum: 4

  Core potential: THIS_BASIS
    Number of shells: 4
    Number of ECP primitives: 29
    Number of ECP core electrons: 28
    Max angular momentum: 3

   => Loading Basis Set <=

    Name: (THIS_BASIS AUX)
    Role: JKFIT
    Keyword: DF_BASIS_SCF
    atoms 1, 4-6 entry H          line    18 file /home/vance/anaconda3/envs/p4env/share/psi4/basis/def2-universal-jkfit.gbs 
    atoms 2      entry I          line  4980 file /home/vance/anaconda3/envs/p4env/share/psi4/basis/def2-universal-jkfit.gbs 
    atoms 3      entry N          line   258 file /home/vance/anaconda3/envs/p4env/share/psi4/basis/def2-universal-jkfit.gbs 

  ==> Integral Setup <==

  ==> DiskDFJK: Density-Fitted J/K Matrices <==

    J tasked:                  Yes
    K tasked:                  Yes
    wK tasked:                  No
    OpenMP threads:              4
    Integrals threads:           4
    Memory [MiB]:             5722
    Algorithm:                Core
    Integral Cache:           SAVE
    Schwarz Cutoff:          1E-12
    Fitting Condition:       1E-10

   => Auxiliary Basis Set <=

  Basis Set: (THIS_BASIS AUX)
    Blend: DEF2-UNIVERSAL-JKFIT
    Number of shells: 95
    Number of basis functions: 367
    Number of Cartesian functions: 482
    Spherical Harmonics?: true
    Max angular momentum: 5

  Minimum eigenvalue in the overlap matrix is 1.1130425039E-04.
  Reciprocal condition number of the overlap matrix is 1.3301078889E-05.
    Using symmetric orthogonalization.

  ==> Pre-Iterations <==

  SCF Guess: Superposition of Atomic Densities via on-the-fly atomic UHF (no occupation information).

   -------------------------
    Irrep   Nso     Nmo    
   -------------------------
     A        259     259 
   -------------------------
    Total     259     259
   -------------------------

  ==> Iterations <==

                           Total Energy        Delta E     RMS |[F,P]|

   @DF-RHF iter SAD:  -350.06945634102789   -3.50069e+02   0.00000e+00 
   @DF-RHF iter   1:  -353.02676792389246   -2.95731e+00   3.61978e-03 DIIS/ADIIS
   @DF-RHF iter   2:  -353.40230388189906   -3.75536e-01   2.04631e-03 DIIS/ADIIS
   @DF-RHF iter   3:  -353.46553281759623   -6.32289e-02   1.73572e-04 DIIS/ADIIS
   @DF-RHF iter   4:  -353.46733214180784   -1.79932e-03   6.72495e-05 DIIS
   @DF-RHF iter   5:  -353.46761576606059   -2.83624e-04   3.48748e-05 DIIS
   @DF-RHF iter   6:  -353.46766791292953   -5.21469e-05   8.13329e-06 DIIS
   @DF-RHF iter   7:  -353.46767526177354   -7.34884e-06   1.75091e-06 DIIS
   @DF-RHF iter   8:  -353.46767553015752   -2.68384e-07   6.88849e-07 DIIS
   @DF-RHF iter   9:  -353.46767555919689   -2.90394e-08   1.44998e-07 DIIS
   @DF-RHF iter  10:  -353.46767556128179   -2.08490e-09   2.56563e-08 DIIS
   @DF-RHF iter  11:  -353.46767556136751   -8.57199e-11   5.88257e-09 DIIS
  Energy and wave function converged.


  ==> Post-Iterations <==

    Orbital Energies [Eh]
    ---------------------

    Doubly Occupied:                                                      

       1A    -15.588226     2A     -7.702077     3A     -5.554102  
       4A     -5.548358     5A     -5.548358     6A     -2.249853  
       7A     -2.246419     8A     -2.246419     9A     -2.239930  
      10A     -2.239930    11A     -1.190349    12A     -0.865563  
      13A     -0.680360    14A     -0.680359    15A     -0.550862  
      16A     -0.405091    17A     -0.348938    18A     -0.348938  

    Virtual:                                                              

      19A      0.081383    20A      0.136089    21A      0.137505  
      22A      0.137506    23A      0.195172    24A      0.228404  
      25A      0.228408    26A      0.253669    27A      0.253672  
      28A      0.262612    29A      0.306680    30A      0.317071  
      31A      0.317071    32A      0.355035    33A      0.355055  
      34A      0.406907    35A      0.473413    36A      0.490037  
      37A      0.490038    38A      0.524890    39A      0.524891  
      40A      0.557068    41A      0.733483    42A      0.733488  
      43A      0.746391    44A      0.818198    45A      0.818206  
      46A      0.834441    47A      0.843314    48A      0.843674  
      49A      0.858971    50A      0.858977    51A      0.866868  
      52A      0.920144    53A      0.948210    54A      0.948211  
      55A      0.962471    56A      1.000163    57A      1.000167  
      58A      1.006283    59A      1.006296    60A      1.045717  
      61A      1.045749    62A      1.057316    63A      1.057331  
      64A      1.078593    65A      1.096529    66A      1.151249  
      67A      1.151250    68A      1.233850    69A      1.316095  
      70A      1.317895    71A      1.317906    72A      1.384015  
      73A      1.420835    74A      1.442836    75A      1.442855  
      76A      1.587274    77A      1.587274    78A      1.595749  
      79A      1.596078    80A      1.619930    81A      1.619931  
      82A      1.644926    83A      1.712968    84A      1.855621  
      85A      1.855635    86A      1.968549    87A      1.968552  
      88A      2.014801    89A      2.136223    90A      2.136296  
      91A      2.146471    92A      2.146471    93A      2.185061  
      94A      2.185064    95A      2.278000    96A      2.278008  
      97A      2.303119    98A      2.353277    99A      2.373844  
     100A      2.373855   101A      2.410063   102A      2.472469  
     103A      2.472492   104A      2.533023   105A      2.560595  
     106A      2.560602   107A      2.591288   108A      2.591298  
     109A      2.685371   110A      2.685399   111A      2.693124  
     112A      2.716948   113A      2.716978   114A      2.846261  
     115A      2.867213   116A      2.867226   117A      2.948740  
     118A      2.964600   119A      2.964601   120A      2.981296  
     121A      3.058643   122A      3.058670   123A      3.107223  
     124A      3.107284   125A      3.116951   126A      3.155336  
     127A      3.155345   128A      3.185317   129A      3.200539  
     130A      3.250157   131A      3.250160   132A      3.335568  
     133A      3.473013   134A      3.478929   135A      3.478930  
     136A      3.554985   137A      3.610598   138A      3.610608  
     139A      3.767623   140A      3.767623   141A      3.770012  
     142A      3.773759   143A      3.776176   144A      3.910408  
     145A      3.910419   146A      3.973647   147A      4.024959  
     148A      4.024992   149A      4.152509   150A      4.213633  
     151A      4.327259   152A      4.327266   153A      4.470233  
     154A      4.589659   155A      4.610159   156A      4.610164  
     157A      5.278123   158A      5.404940   159A      5.404954  
     160A      6.026473   161A      6.071361   162A      6.079740  
     163A      6.085193   164A      6.085212   165A      6.214147  
     166A      6.214152   167A      6.260576   168A      6.260592  
     169A      6.277864   170A      6.323433   171A      6.323450  
     172A      6.567827   173A      6.638365   174A      6.638429  
     175A      6.736175   176A      6.938061   177A      6.938086  
     178A      6.938928   179A      7.205944   180A      7.205993  
     181A      7.216152   182A      7.225884   183A      7.375257  
     184A      7.375299   185A      7.570779   186A      7.570789  
     187A      7.612624   188A      7.645137   189A      7.645138  
     190A      7.733822   191A      7.942762   192A      7.942792  
     193A      7.997050   194A      8.038990   195A      8.039007  
     196A      8.050694   197A      8.085760   198A      8.085767  
     199A      8.253132   200A      8.253158   201A      8.260041  
     202A      8.358347   203A      8.358368   204A      8.370748  
     205A      8.475469   206A      8.475524   207A      8.475818  
     208A      8.580084   209A      8.606288   210A      8.710308  
     211A      8.717654   212A      8.717673   213A      8.829546  
     214A      8.829560   215A      8.999162   216A      9.032068  
     217A      9.032102   218A      9.055197   219A      9.055239  
     220A      9.195134   221A      9.505347   222A      9.505352  
     223A      9.587364   224A      9.883600   225A      9.883612  
     226A      9.921543   227A     10.091305   228A     10.091311  
     229A     10.266333   230A     10.308433   231A     10.493294  
     232A     10.493296   233A     10.636940   234A     11.599985  
     235A     11.666333   236A     11.666343   237A     12.084766  
     238A     12.098683   239A     12.098695   240A     12.272854  
     241A     12.272880   242A     12.305884   243A     12.305963  
     244A     12.306519   245A     12.306522   246A     12.416360  
     247A     12.416360   248A     12.422049   249A     12.686113  
     250A     14.832515   251A     14.832535   252A     14.850243  
     253A     15.699318   254A     39.411561   255A     40.386893  
     256A     40.386894   257A     40.515109   258A     79.154843  
     259A    200.538584  

    Final Occupation by Irrep:
              A 
    DOCC [    18 ]
    NA   [    18 ]
    NB   [    18 ]

  @DF-RHF Final Energy:  -353.46767556136751

   => Energetics <=

    Nuclear Repulsion Energy =             58.8329841127119124
    One-Electron Energy =                -712.1330538563446453
    Two-Electron Energy =                 299.8323941822652614
    Total Energy =                       -353.4676755613675141

Computation Completed


Properties will be evaluated at   0.000000,   0.000000,   0.000000 [a0]

Properties computed using the SCF density matrix


 Multipole Moments:

 ------------------------------------------------------------------------------------
     Multipole            Electronic (a.u.)      Nuclear  (a.u.)        Total (a.u.)
 ------------------------------------------------------------------------------------

 L = 1.  Multiply by 2.5417464519 to convert [e a0] to [Debye]
 Dipole X            :          3.3929619           -3.5501813           -0.1572194
 Dipole Y            :         -3.4140830            3.5722875            0.1582044
 Dipole Z            :        -39.9490837           41.8007061            1.8516225
 Magnitude           :                                                    1.8650073

 ------------------------------------------------------------------------------------

*** tstop() called on cmpsrv002 at Thu Sep 19 13:57:46 2024
Module time:
	user time   =      16.13 seconds =       0.27 minutes
	system time =       2.02 seconds =       0.03 minutes
	total time  =         21 seconds =       0.35 minutes
Total time:
	user time   =      16.13 seconds =       0.27 minutes
	system time =       2.02 seconds =       0.03 minutes
	total time  =         21 seconds =       0.35 minutes
   => Libint2 <=

    Primary   basis highest AM E, G, H:  6, 6, 3
    Auxiliary basis highest AM E, G, H:  7, 7, 4
    Onebody   basis highest AM E, G, H:  -, -, -
    Solid Harmonics ordering:            Gaussian

*** tstart() called on cmpsrv002
*** at Thu Sep 19 13:57:46 2024

   => Loading Basis Set <=

    Name: THIS_BASIS
    Role: ORBITAL
    Keyword: BASIS
    atoms 1, 4-6 entry H          line    15 file /home/vance/anaconda3/envs/p4env/share/psi4/basis/def2-qzvpp.gbs 
    atoms 2      entry I          line  3401 (ECP: line  4988) file /home/vance/anaconda3/envs/p4env/share/psi4/basis/def2-qzvpp.gbs 
    atoms 3      entry N          line   242 file /home/vance/anaconda3/envs/p4env/share/psi4/basis/def2-qzvpp.gbs 

    !!!  WARNING: ECP capability is in beta. Please check occupations closely.  !!!


         ---------------------------------------------------------
                       SAPT(DFT): delta HF Monomer A               
         ---------------------------------------------------------
                                   SCF
               by Justin Turney, Rob Parrish, Andy Simmonett
                          and Daniel G. A. Smith
                              RHF Reference
                        4 Threads,   7629 MiB Core
         ---------------------------------------------------------

  ==> Geometry <==

    Molecular point group: c1
    Full point group: C1

    Geometry (in Angstrom), charge = 0, multiplicity = 1:

       Center              X                  Y                   Z               Mass       
    ------------   -----------------  -----------------  -----------------  -----------------
         H           -0.109595696151     0.110239530984     1.289358085411     1.007825032230
         I            0.036304303849    -0.036530469016    -0.427451914589   126.904471900000
      Gh(N)          -0.258925696151     0.260539530984     3.048598085411    14.003074004430
      Gh(H)           0.031124303849    -0.600050469016     3.495278085411     1.007825032230
      Gh(H)           0.325074303849     1.016799530984     3.382198085411     1.007825032230
      Gh(H)          -1.220405696151     0.452869530984     3.299258085411     1.007825032230

  Running in c1 symmetry.

  Rotational constants: A =      6.16450  B =      0.08693  C =      0.08693 [cm^-1]
  Rotational constants: A = 184807.06449  B =   2606.10269  C =   2606.10259 [MHz]
  Nuclear repulsion =    7.650438279290174

  Charge       = 0
  Multiplicity = 1
  Electrons    = 26
  Nalpha       = 13
  Nbeta        = 13

  ==> Algorithm <==

  SCF Algorithm Type is DF.
  DIIS enabled.
  MOM disabled.
  Fractional occupation disabled.
  Guess Type is SAD.
  Energy threshold   = 1.00e-08
  Density threshold  = 1.00e-08
  Integral threshold = 1.00e-12

  ==> Primary Basis <==

  Basis Set: THIS_BASIS
    Blend: DEF2-QZVPP
    Number of shells: 79
    Number of basis functions: 259
    Number of Cartesian functions: 316
    Spherical Harmonics?: true
    Max angular momentum: 4

  Core potential: THIS_BASIS
    Number of shells: 4
    Number of ECP primitives: 29
    Number of ECP core electrons: 28
    Max angular momentum: 3

   => Loading Basis Set <=

    Name: (THIS_BASIS AUX)
    Role: JKFIT
    Keyword: DF_BASIS_SCF
    atoms 1, 4-6 entry H          line    18 file /home/vance/anaconda3/envs/p4env/share/psi4/basis/def2-universal-jkfit.gbs 
    atoms 2      entry I          line  4980 file /home/vance/anaconda3/envs/p4env/share/psi4/basis/def2-universal-jkfit.gbs 
    atoms 3      entry N          line   258 file /home/vance/anaconda3/envs/p4env/share/psi4/basis/def2-universal-jkfit.gbs 

  ==> Integral Setup <==

  ==> DiskDFJK: Density-Fitted J/K Matrices <==

    J tasked:                  Yes
    K tasked:                  Yes
    wK tasked:                  No
    OpenMP threads:              4
    Integrals threads:           4
    Memory [MiB]:             5722
    Algorithm:                Core
    Integral Cache:           SAVE
    Schwarz Cutoff:          1E-12
    Fitting Condition:       1E-10

   => Auxiliary Basis Set <=

  Basis Set: (THIS_BASIS AUX)
    Blend: DEF2-UNIVERSAL-JKFIT
    Number of shells: 95
    Number of basis functions: 367
    Number of Cartesian functions: 482
    Spherical Harmonics?: true
    Max angular momentum: 5

  Minimum eigenvalue in the overlap matrix is 1.1130425039E-04.
  Reciprocal condition number of the overlap matrix is 1.3301078889E-05.
    Using symmetric orthogonalization.

  ==> Pre-Iterations <==

  SCF Guess: Superposition of Atomic Densities via on-the-fly atomic UHF (no occupation information).

   -------------------------
    Irrep   Nso     Nmo    
   -------------------------
     A        259     259 
   -------------------------
    Total     259     259
   -------------------------

  ==> Iterations <==

                           Total Energy        Delta E     RMS |[F,P]|

   @DF-RHF iter SAD:  -294.17307285277349   -2.94173e+02   0.00000e+00 
   @DF-RHF iter   1:  -296.92030693586582   -2.74723e+00   3.20657e-03 DIIS/ADIIS
   @DF-RHF iter   2:  -297.18615140962390   -2.65844e-01   1.87070e-03 DIIS/ADIIS
   @DF-RHF iter   3:  -297.23751613940641   -5.13647e-02   1.47870e-04 DIIS/ADIIS
   @DF-RHF iter   4:  -297.23802631122021   -5.10172e-04   6.73135e-05 DIIS
   @DF-RHF iter   5:  -297.23812344185700   -9.71306e-05   1.81131e-05 DIIS
   @DF-RHF iter   6:  -297.23814131236526   -1.78705e-05   3.28693e-06 DIIS
   @DF-RHF iter   7:  -297.23814277782543   -1.46546e-06   6.22518e-07 DIIS
   @DF-RHF iter   8:  -297.23814282164449   -4.38191e-08   1.61399e-07 DIIS
   @DF-RHF iter   9:  -297.23814282455243   -2.90794e-09   4.21582e-08 DIIS
   @DF-RHF iter  10:  -297.23814282483966   -2.87230e-10   2.06352e-08 DIIS
   @DF-RHF iter  11:  -297.23814282487513   -3.54703e-11   7.80463e-09 DIIS
  Energy and wave function converged.


  ==> Post-Iterations <==

    Orbital Energies [Eh]
    ---------------------

    Doubly Occupied:                                                      

       1A     -7.750329     2A     -5.604378     3A     -5.595343  
       4A     -5.595343     5A     -2.300379     6A     -2.295669  
       7A     -2.295669     8A     -2.285475     9A     -2.285475  
      10A     -0.903181    11A     -0.514558    12A     -0.386740  
      13A     -0.386740  

    Virtual:                                                              

      14A      0.046411    15A      0.097521    16A      0.135720  
      17A      0.135721    18A      0.174317    19A      0.202907  
      20A      0.216659    21A      0.216659    22A      0.251828  
      23A      0.251834    24A      0.290850    25A      0.290851  
      26A      0.320282    27A      0.336711    28A      0.359097  
      29A      0.359112    30A      0.415938    31A      0.530561  
      32A      0.541695    33A      0.541706    34A      0.618006  
      35A      0.618012    36A      0.691121    37A      0.738834  
      38A      0.738841    39A      0.792751    40A      0.792752  
      41A      0.809411    42A      0.810002    43A      0.817556  
      44A      0.879888    45A      0.907505    46A      0.912737  
      47A      0.912743    48A      0.944301    49A      0.945668  
      50A      0.945670    51A      0.982023    52A      0.982024  
      53A      1.003180    54A      1.003181    55A      1.006711  
      56A      1.043117    57A      1.043142    58A      1.062420  
      59A      1.107637    60A      1.107646    61A      1.147918  
      62A      1.231840    63A      1.231852    64A      1.240697  
      65A      1.326513    66A      1.368410    67A      1.368413  
      68A      1.489180    69A      1.527057    70A      1.527059  
      71A      1.536696    72A      1.545654    73A      1.545655  
      74A      1.556318    75A      1.557389    76A      1.599174  
      77A      1.599176    78A      1.677982    79A      1.928915  
      80A      1.929021    81A      1.929023    82A      2.082743  
      83A      2.096417    84A      2.096723    85A      2.098368  
      86A      2.098370    87A      2.109943    88A      2.109943  
      89A      2.283812    90A      2.283828    91A      2.366074  
      92A      2.391037    93A      2.391046    94A      2.444090  
      95A      2.444105    96A      2.467603    97A      2.506349  
      98A      2.548671    99A      2.548677   100A      2.654915  
     101A      2.654918   102A      2.684184   103A      2.703379  
     104A      2.703384   105A      2.815762   106A      2.815770  
     107A      2.864258   108A      2.868598   109A      2.868611  
     110A      2.916066   111A      2.916068   112A      2.923101  
     113A      2.968048   114A      2.968070   115A      3.021546  
     116A      3.021607   117A      3.035083   118A      3.121690  
     119A      3.121702   120A      3.157208   121A      3.199306  
     122A      3.207691   123A      3.307082   124A      3.416458  
     125A      3.417381   126A      3.417404   127A      3.450068  
     128A      3.450078   129A      3.510149   130A      3.510164  
     131A      3.546415   132A      3.658187   133A      3.722495  
     134A      3.722496   135A      3.731318   136A      3.731628  
     137A      3.754819   138A      3.754821   139A      3.873213  
     140A      3.873221   141A      3.885105   142A      4.014002  
     143A      4.129330   144A      4.129356   145A      4.305088  
     146A      4.405291   147A      4.541679   148A      4.548671  
     149A      4.548677   150A      4.627516   151A      5.047898  
     152A      5.047904   153A      5.437741   154A      5.990093  
     155A      5.990104   156A      6.047483   157A      6.054911  
     158A      6.190543   159A      6.211016   160A      6.211035  
     161A      6.389272   162A      6.389287   163A      6.467730  
     164A      6.467736   165A      6.547313   166A      6.648881  
     167A      6.648898   168A      6.840589   169A      6.858797  
     170A      6.858845   171A      7.173406   172A      7.173437  
     173A      7.285754   174A      7.385159   175A      7.453683  
     176A      7.453727   177A      7.646784   178A      7.660511  
     179A      7.819369   180A      7.819384   181A      7.953554  
     182A      8.002628   183A      8.002652   184A      8.151073  
     185A      8.185370   186A      8.185392   187A      8.219038  
     188A      8.219042   189A      8.320351   190A      8.450360  
     191A      8.457732   192A      8.457743   193A      8.608934  
     194A      8.608941   195A      8.755650   196A      8.763198  
     197A      8.763202   198A      8.785439   199A      8.785443  
     200A      8.802956   201A      8.985676   202A      9.000569  
     203A      9.000570   204A      9.098096   205A      9.195350  
     206A      9.241435   207A      9.241467   208A      9.271878  
     209A      9.344349   210A      9.344354   211A      9.482457  
     212A      9.628952   213A      9.741208   214A      9.741226  
     215A      9.810257   216A     10.000919   217A     10.084708  
     218A     10.084718   219A     10.263003   220A     10.263020  
     221A     10.307351   222A     10.691215   223A     10.691223  
     224A     11.053495   225A     11.053501   226A     11.202432  
     227A     11.791938   228A     11.799817   229A     11.799829  
     230A     12.256906   231A     12.256906   232A     12.260808  
     233A     12.260858   234A     12.356776   235A     12.356794  
     236A     12.370513   237A     12.370517   238A     12.638374  
     239A     12.768754   240A     13.684984   241A     13.873090  
     242A     13.873103   243A     14.187508   244A     14.287445  
     245A     14.287465   246A     14.580266   247A     14.580277  
     248A     14.643953   249A     14.806197   250A     16.115592  
     251A     18.279363   252A     18.279401   253A     25.548762  
     254A     40.339192   255A     40.339193   256A     40.464638  
     257A     70.318172   258A     79.106960   259A    318.695462  

    Final Occupation by Irrep:
              A 
    DOCC [    13 ]
    NA   [    13 ]
    NB   [    13 ]

  @DF-RHF Final Energy:  -297.23814282487513

   => Energetics <=

    Nuclear Repulsion Energy =              7.6504382792901735
    One-Electron Energy =                -533.3785994155315393
    Two-Electron Energy =                 228.4900183113662706
    Total Energy =                       -297.2381428248751263

Computation Completed


Properties will be evaluated at   0.000000,   0.000000,   0.000000 [a0]

Properties computed using the SCF density matrix


 Multipole Moments:

 ------------------------------------------------------------------------------------
     Multipole            Electronic (a.u.)      Nuclear  (a.u.)        Total (a.u.)
 ------------------------------------------------------------------------------------

 L = 1.  Multiply by 2.5417464519 to convert [e a0] to [Debye]
 Dipole X            :         -1.5256940            1.5080239           -0.0176701
 Dipole Y            :          1.5352673           -1.5174920            0.0177753
 Dipole Z            :         17.9655601          -17.7576426            0.2079175
 Magnitude           :                                                    0.2094227

 ------------------------------------------------------------------------------------

*** tstop() called on cmpsrv002 at Thu Sep 19 13:58:10 2024
Module time:
	user time   =      14.72 seconds =       0.25 minutes
	system time =       1.78 seconds =       0.03 minutes
	total time  =         24 seconds =       0.40 minutes
Total time:
	user time   =      30.87 seconds =       0.51 minutes
	system time =       3.81 seconds =       0.06 minutes
	total time  =         45 seconds =       0.75 minutes
   => Libint2 <=

    Primary   basis highest AM E, G, H:  6, 6, 3
    Auxiliary basis highest AM E, G, H:  7, 7, 4
    Onebody   basis highest AM E, G, H:  -, -, -
    Solid Harmonics ordering:            Gaussian

*** tstart() called on cmpsrv002
*** at Thu Sep 19 13:58:10 2024

   => Loading Basis Set <=

    Name: THIS_BASIS
    Role: ORBITAL
    Keyword: BASIS
    atoms 1, 4-6 entry H          line    15 file /home/vance/anaconda3/envs/p4env/share/psi4/basis/def2-qzvpp.gbs 
    atoms 2      entry I          line  3401 (ECP: line  4988) file /home/vance/anaconda3/envs/p4env/share/psi4/basis/def2-qzvpp.gbs 
    atoms 3      entry N          line   242 file /home/vance/anaconda3/envs/p4env/share/psi4/basis/def2-qzvpp.gbs 

    !!!  WARNING: ECP capability is in beta. Please check occupations closely.  !!!


         ---------------------------------------------------------
                       SAPT(DFT): delta HF Monomer B               
         ---------------------------------------------------------
                                   SCF
               by Justin Turney, Rob Parrish, Andy Simmonett
                          and Daniel G. A. Smith
                              RHF Reference
                        4 Threads,   7629 MiB Core
         ---------------------------------------------------------

  ==> Geometry <==

    Molecular point group: c1
    Full point group: C1

    Geometry (in Angstrom), charge = 0, multiplicity = 1:

       Center              X                  Y                   Z               Mass       
    ------------   -----------------  -----------------  -----------------  -----------------
      Gh(H)          -0.109595696151     0.110239530984     1.289358085411     1.007825032230
      Gh(I)           0.036304303849    -0.036530469016    -0.427451914589   126.904471900000
         N           -0.258925696151     0.260539530984     3.048598085411    14.003074004430
         H            0.031124303849    -0.600050469016     3.495278085411     1.007825032230
         H            0.325074303849     1.016799530984     3.382198085411     1.007825032230
         H           -1.220405696151     0.452869530984     3.299258085411     1.007825032230

  Running in c1 symmetry.

  Rotational constants: A =      6.16450  B =      0.08693  C =      0.08693 [cm^-1]
  Rotational constants: A = 184807.06449  B =   2606.10269  C =   2606.10259 [MHz]
  Nuclear repulsion =   11.944033846156771

  Charge       = 0
  Multiplicity = 1
  Electrons    = 10
  Nalpha       = 5
  Nbeta        = 5

  ==> Algorithm <==

  SCF Algorithm Type is DF.
  DIIS enabled.
  MOM disabled.
  Fractional occupation disabled.
  Guess Type is SAD.
  Energy threshold   = 1.00e-08
  Density threshold  = 1.00e-08
  Integral threshold = 1.00e-12

  ==> Primary Basis <==

  Basis Set: THIS_BASIS
    Blend: DEF2-QZVPP
    Number of shells: 79
    Number of basis functions: 259
    Number of Cartesian functions: 316
    Spherical Harmonics?: true
    Max angular momentum: 4

  Core potential: THIS_BASIS
    Number of shells: 4
    Number of ECP primitives: 29
    Number of ECP core electrons: 0
    Max angular momentum: 3

   => Loading Basis Set <=

    Name: (THIS_BASIS AUX)
    Role: JKFIT
    Keyword: DF_BASIS_SCF
    atoms 1, 4-6 entry H          line    18 file /home/vance/anaconda3/envs/p4env/share/psi4/basis/def2-universal-jkfit.gbs 
    atoms 2      entry I          line  4980 file /home/vance/anaconda3/envs/p4env/share/psi4/basis/def2-universal-jkfit.gbs 
    atoms 3      entry N          line   258 file /home/vance/anaconda3/envs/p4env/share/psi4/basis/def2-universal-jkfit.gbs 

  ==> Integral Setup <==

  ==> DiskDFJK: Density-Fitted J/K Matrices <==

    J tasked:                  Yes
    K tasked:                  Yes
    wK tasked:                  No
    OpenMP threads:              4
    Integrals threads:           4
    Memory [MiB]:             5722
    Algorithm:                Core
    Integral Cache:           SAVE
    Schwarz Cutoff:          1E-12
    Fitting Condition:       1E-10

   => Auxiliary Basis Set <=

  Basis Set: (THIS_BASIS AUX)
    Blend: DEF2-UNIVERSAL-JKFIT
    Number of shells: 95
    Number of basis functions: 367
    Number of Cartesian functions: 482
    Spherical Harmonics?: true
    Max angular momentum: 5

  Minimum eigenvalue in the overlap matrix is 1.1130425039E-04.
  Reciprocal condition number of the overlap matrix is 1.3301078889E-05.
    Using symmetric orthogonalization.

  ==> Pre-Iterations <==

  SCF Guess: Superposition of Atomic Densities via on-the-fly atomic UHF (no occupation information).

   -------------------------
    Irrep   Nso     Nmo    
   -------------------------
     A        259     259 
   -------------------------
    Total     259     259
   -------------------------

  ==> Iterations <==

                           Total Energy        Delta E     RMS |[F,P]|

   @DF-RHF iter SAD:   -55.65030024375518   -5.56503e+01   0.00000e+00 
   @DF-RHF iter   1:   -56.13001610521906   -4.79716e-01   1.77358e-03 DIIS/ADIIS
   @DF-RHF iter   2:   -56.19689809661583   -6.68820e-02   1.02221e-03 DIIS/ADIIS
   @DF-RHF iter   3:   -56.22373543482178   -2.68373e-02   9.46815e-05 DIIS
   @DF-RHF iter   4:   -56.22436186388357   -6.26429e-04   1.75521e-05 DIIS
   @DF-RHF iter   5:   -56.22438223025932   -2.03664e-05   3.26935e-06 DIIS
   @DF-RHF iter   6:   -56.22438343627303   -1.20601e-06   8.44741e-07 DIIS
   @DF-RHF iter   7:   -56.22438352143674   -8.51637e-08   1.87510e-07 DIIS
   @DF-RHF iter   8:   -56.22438352595226   -4.51553e-09   2.98629e-08 DIIS
   @DF-RHF iter   9:   -56.22438352606572   -1.13459e-10   8.39959e-09 DIIS
  Energy and wave function converged.


  ==> Post-Iterations <==

    Orbital Energies [Eh]
    ---------------------

    Doubly Occupied:                                                      

       1A    -15.538051     2A     -1.137945     3A     -0.631737  
       4A     -0.631735     5A     -0.422820  

    Virtual:                                                              

       6A      0.093563     7A      0.110192     8A      0.139764  
       9A      0.139765    10A      0.168517    11A      0.168520  
      12A      0.181753    13A      0.311421    14A      0.311421  
      15A      0.316267    16A      0.344051    17A      0.425854  
      18A      0.425854    19A      0.433940    20A      0.449035  
      21A      0.449051    22A      0.498832    23A      0.510017  
      24A      0.510017    25A      0.527843    26A      0.527844  
      27A      0.532332    28A      0.578735    29A      0.578741  
      30A      0.649182    31A      0.704343    32A      0.865125  
      33A      0.867564    34A      0.892172    35A      0.892193  
      36A      0.911370    37A      0.911371    38A      0.998095  
      39A      1.040042    40A      1.040047    41A      1.052761  
      42A      1.053011    43A      1.076703    44A      1.076712  
      45A      1.099508    46A      1.099520    47A      1.187099  
      48A      1.200061    49A      1.239980    50A      1.239986  
      51A      1.308400    52A      1.319303    53A      1.337619  
      54A      1.337621    55A      1.354311    56A      1.354316  
      57A      1.362503    58A      1.390608    59A      1.390620  
      60A      1.404173    61A      1.404174    62A      1.419174  
      63A      1.551865    64A      1.551888    65A      1.573090  
      66A      1.790693    67A      1.924663    68A      1.924683  
      69A      1.943411    70A      2.137790    71A      2.231631  
      72A      2.231647    73A      2.305786    74A      2.305798  
      75A      2.341169    76A      2.394908    77A      2.462291  
      78A      2.462292    79A      2.531037    80A      2.531044  
      81A      2.590524    82A      2.590528    83A      2.622809  
      84A      2.622809    85A      2.623517    86A      2.623715  
      87A      2.630009    88A      2.630023    89A      2.659754  
      90A      2.736035    91A      2.738773    92A      2.738789  
      93A      2.792148    94A      2.891097    95A      2.891136  
      96A      2.897777    97A      2.929159    98A      2.929171  
      99A      3.027871   100A      3.123451   101A      3.123455  
     102A      3.149634   103A      3.149675   104A      3.155297  
     105A      3.176858   106A      3.177372   107A      3.183050  
     108A      3.183051   109A      3.202495   110A      3.202527  
     111A      3.223249   112A      3.228975   113A      3.229000  
     114A      3.251971   115A      3.338359   116A      3.406763  
     117A      3.406764   118A      3.454925   119A      3.480484  
     120A      3.480490   121A      3.520995   122A      3.520997  
     123A      3.526438   124A      3.621035   125A      3.621037  
     126A      3.667135   127A      3.935134   128A      3.945792  
     129A      3.945816   130A      4.036958   131A      4.037015  
     132A      4.063830   133A      4.204173   134A      4.381534  
     135A      4.381545   136A      4.421967   137A      4.637971  
     138A      4.656694   139A      4.656700   140A      4.709861  
     141A      5.328861   142A      5.455049   143A      5.455066  
     144A      6.160911   145A      6.160916   146A      6.262364  
     147A      6.262368   148A      6.320869   149A      6.348620  
     150A      6.367543   151A      6.376509   152A      6.376517  
     153A      6.384769   154A      6.573356   155A      6.573364  
     156A      6.780530   157A      6.852381   158A      6.852440  
     159A      6.912234   160A      7.003841   161A      7.003867  
     162A      7.259587   163A      7.304793   164A      7.304841  
     165A      7.323901   166A      7.464965   167A      7.464998  
     168A      7.619041   169A      7.619050   170A      7.660504  
     171A      7.696052   172A      7.696057   173A      7.839536  
     174A      8.005481   175A      8.005502   176A      8.031558  
     177A      8.116468   178A      8.142947   179A      8.142958  
     180A      8.298160   181A      8.305539   182A      8.361358  
     183A      8.361377   184A      8.521706   185A      8.522253  
     186A      8.522304   187A      8.544035   188A      8.651003  
     189A      8.653099   190A      8.710612   191A      8.710619  
     192A      8.876166   193A      8.876181   194A      8.940688  
     195A      8.940697   196A      8.941191   197A      8.991941  
     198A      8.991959   199A      9.147426   200A      9.147467  
     201A      9.171102   202A      9.495620   203A      9.495648  
     204A      9.511560   205A      9.573904   206A      9.573913  
     207A      9.970426   208A      9.970437   209A     10.019991  
     210A     10.083815   211A     10.148549   212A     10.148556  
     213A     10.158851   214A     10.316269   215A     10.541604  
     216A     10.541607   217A     10.574847   218A     10.593170  
     219A     10.593227   220A     10.599839   221A     10.599840  
     222A     10.737022   223A     10.774802   224A     10.774803  
     225A     11.251492   226A     11.652543   227A     11.715236  
     228A     11.715247   229A     12.142751   230A     12.148320  
     231A     12.148332   232A     12.325811   233A     12.325839  
     234A     12.468484   235A     13.853094   236A     13.853094  
     237A     14.479126   238A     14.690034   239A     14.690035  
     240A     14.758675   241A     14.758684   242A     14.880356  
     243A     14.880375   244A     15.394305   245A     15.748162  
     246A     32.651720   247A     32.651752   248A     32.654011  
     249A     32.654011   250A     32.714315   251A     32.714316  
     252A     32.872420   253A     36.332790   254A     39.463817  
     255A     91.297193   256A     91.297193   257A     91.368242  
     258A    168.051326   259A    200.588814  

    Final Occupation by Irrep:
              A 
    DOCC [     5 ]
    NA   [     5 ]
    NB   [     5 ]

  @DF-RHF Final Energy:   -56.22438352606572

   => Energetics <=

    Nuclear Repulsion Energy =             11.9440338461567706
    One-Electron Energy =                 -99.6122558670770957
    Two-Electron Energy =                  31.4438384948545995
    Total Energy =                        -56.2243835260657221

Computation Completed


Properties will be evaluated at   0.000000,   0.000000,   0.000000 [a0]

Properties computed using the SCF density matrix


 Multipole Moments:

 ------------------------------------------------------------------------------------
     Multipole            Electronic (a.u.)      Nuclear  (a.u.)        Total (a.u.)
 ------------------------------------------------------------------------------------

 L = 1.  Multiply by 2.5417464519 to convert [e a0] to [Debye]
 Dipole X            :          5.0080041           -5.0582053           -0.0502012
 Dipole Y            :         -5.0392539            5.0897795            0.0505256
 Dipole Z            :        -58.9664213           59.5583487            0.5919275
 Magnitude           :                                                    0.5961972

 ------------------------------------------------------------------------------------

*** tstop() called on cmpsrv002 at Thu Sep 19 13:58:32 2024
Module time:
	user time   =      12.61 seconds =       0.21 minutes
	system time =       1.73 seconds =       0.03 minutes
	total time  =         22 seconds =       0.37 minutes
Total time:
	user time   =      43.52 seconds =       0.73 minutes
	system time =       5.56 seconds =       0.09 minutes
	total time  =         67 seconds =       1.12 minutes

         ---------------------------------------------------------
                        SAPT(DFT): delta HF Segment                

                   by Daniel G. A. Smith and Rob Parrish           
         ---------------------------------------------------------


  ==> Preparing SAPT Data Cache <== 

  ==> DiskDFJK: Density-Fitted J/K Matrices <==

    J tasked:                  Yes
    K tasked:                  Yes
    wK tasked:                  No
    OpenMP threads:              4
    Integrals threads:           4
    Memory [MiB]:             5722
    Algorithm:                Core
    Integral Cache:           SAVE
    Schwarz Cutoff:          1E-12
    Fitting Condition:       1E-10

   => Auxiliary Basis Set <=

  Basis Set: (THIS_BASIS AUX)
    Blend: DEF2-UNIVERSAL-JKFIT
    Number of shells: 95
    Number of basis functions: 367
    Number of Cartesian functions: 482
    Spherical Harmonics?: true
    Max angular momentum: 5


  ==> E10 Electostatics <== 

    Elst10,r                        -30.38956354 [mEh]

  ==> E10 Exchange <== 

    Exch10(S^2)                      46.52371186 [mEh]
    Exch10                           48.46297777 [mEh]

  ==> E20 Induction <== 

   => Uncoupled Induction <= 

    Ind20,u (A<-B)                   -9.23109603 [mEh]
    Ind20,u (A->B)                   -7.37593379 [mEh]
    Ind20,u                         -16.60702983 [mEh]
    Exch-Ind20,u (A<-B)               6.13659753 [mEh]
    Exch-Ind20,u (A->B)               2.40458564 [mEh]
    Exch-Ind20,u                      8.54118316 [mEh]
    Exch-Ind20,u (A<-B) (S^inf)       6.68052805 [mEh]
    Exch-Ind20,u (A->B) (S^inf)       2.88322039 [mEh]
    Exch-Ind20,u (S^inf)              9.56374845 [mEh]

   => Coupled Induction <= 

   ---------------------------------------------------
              SAPT Coupled Induction Solver           
   ---------------------------------------------------
    Maxiter             =          20
    Convergence         =   1.000E-06
   ---------------------------------------------------
     Iter       (A<-B)           (B->A)      Time [s]
   ---------------------------------------------------
    Guess    1.529655e-01     1.948017e-01          0
        1    7.116246e-02     4.702854e-02          1
        2    9.733257e-03     1.189990e-02          2
        3    2.374007e-03     3.970459e-03          3
        4    6.366701e-04     9.039553e-04          3
        5    2.495108e-04     1.547249e-04          4
        6    3.280988e-05     2.136715e-05          5
        7    4.678481e-06     4.522712e-06          6
        8    6.079962e-07*    7.591359e-07*         7
   ---------------------------------------------------

    Ind20,r (A<-B)                  -10.55816091 [mEh]
    Ind20,r (A->B)                   -9.64300930 [mEh]
    Ind20,r                         -20.20117021 [mEh]
    Exch-Ind20,r (A<-B)               7.38972331 [mEh]
    Exch-Ind20,r (A->B)               3.67116545 [mEh]
    Exch-Ind20,r                     11.06088877 [mEh]
    Exch-Ind20,r (A<-B) (S^inf)       8.05801168 [mEh]
    Exch-Ind20,r (A->B) (S^inf)       4.37871902 [mEh]
    Exch-Ind20,r (S^inf)             12.43673070 [mEh]

   Partial SAPT(HF) Results, to compute Delta HF (dHF)
  ---------------------------------------------------------------------------------------------------------
    Electrostatics                  -30.38956354 [mEh]    -19.06973903 [kcal/mol]    -79.78778808 [kJ/mol]
      Elst10,r                      -30.38956354 [mEh]    -19.06973903 [kcal/mol]    -79.78778808 [kJ/mol]

    Exchange                         48.46297777 [mEh]     30.41097768 [kcal/mol]    127.23953061 [kJ/mol]
      Exch10                         48.46297777 [mEh]     30.41097768 [kcal/mol]    127.23953061 [kJ/mol]
      Exch10(S^2)                    46.52371186 [mEh]     29.19406994 [kcal/mol]    122.14798865 [kJ/mol]

    Induction (no dHF)               -9.14028144 [mEh]     -5.73561320 [kcal/mol]    -23.99780561 [kJ/mol]
      Ind20,r                       -20.20117021 [mEh]    -12.67642569 [kcal/mol]    -53.03816507 [kJ/mol]
      Exch-Ind20,r                   11.06088877 [mEh]      6.94081249 [kcal/mol]     29.04035946 [kJ/mol]
      Induction (A<-B) (no dHF)      -3.16843760 [mEh]     -1.98822461 [kcal/mol]     -8.31873177 [kJ/mol]
      Induction (A->B) (no dHF)      -5.97184384 [mEh]     -3.74738859 [kcal/mol]    -15.67907385 [kJ/mol]

    Subtotal SAPT(HF)                 8.93313279 [mEh]      5.60562546 [kcal/mol]     23.45393691 [kJ/mol]
    Total HF                         -5.14921043 [mEh]     -3.23117833 [kcal/mol]    -13.51925011 [kJ/mol]
    Delta HF                        -14.08234322 [mEh]     -8.83680378 [kcal/mol]    -36.97318703 [kJ/mol]
  ---------------------------------------------------------------------------------------------------------
   Partial SAPT(HF) Results, alternate SAPT0-like display
  ---------------------------------------------------------------------------------------------------------
    Induction                       -23.22262466 [mEh]    -14.57241698 [kcal/mol]    -60.97099264 [kJ/mol]
      Ind20,r                       -20.20117021 [mEh]    -12.67642569 [kcal/mol]    -53.03816507 [kJ/mol]
      Exch-Ind20,r                   11.06088877 [mEh]      6.94081249 [kcal/mol]     29.04035946 [kJ/mol]
      delta HF,r (2)                -14.08234322 [mEh]     -8.83680378 [kcal/mol]    -36.97318703 [kJ/mol]
      Induction (A<-B)               -8.05001876 [mEh]     -5.05146304 [kcal/mol]    -21.13532134 [kJ/mol]
      Induction (A->B)              -15.17260590 [mEh]     -9.52095394 [kcal/mol]    -39.83567130 [kJ/mol]
  ---------------------------------------------------------------------------------------------------------
   => Libint2 <=

    Primary   basis highest AM E, G, H:  6, 6, 3
    Auxiliary basis highest AM E, G, H:  7, 7, 4
    Onebody   basis highest AM E, G, H:  -, -, -
    Solid Harmonics ordering:            Gaussian

*** tstart() called on cmpsrv002
*** at Thu Sep 19 13:58:48 2024

   => Loading Basis Set <=

    Name: THIS_BASIS
    Role: ORBITAL
    Keyword: BASIS
    atoms 1, 4-6 entry H          line    15 file /home/vance/anaconda3/envs/p4env/share/psi4/basis/def2-qzvpp.gbs 
    atoms 2      entry I          line  3401 (ECP: line  4988) file /home/vance/anaconda3/envs/p4env/share/psi4/basis/def2-qzvpp.gbs 
    atoms 3      entry N          line   242 file /home/vance/anaconda3/envs/p4env/share/psi4/basis/def2-qzvpp.gbs 

    !!!  WARNING: ECP capability is in beta. Please check occupations closely.  !!!


         ---------------------------------------------------------
                          SAPT(DFT): DFT Monomer A                 
         ---------------------------------------------------------
                                   SCF
               by Justin Turney, Rob Parrish, Andy Simmonett
                          and Daniel G. A. Smith
                              RKS Reference
                        4 Threads,   7629 MiB Core
         ---------------------------------------------------------

  ==> Geometry <==

    Molecular point group: c1
    Full point group: C1

    Geometry (in Angstrom), charge = 0, multiplicity = 1:

       Center              X                  Y                   Z               Mass       
    ------------   -----------------  -----------------  -----------------  -----------------
         H           -0.109595696151     0.110239530984     1.289358085411     1.007825032230
         I            0.036304303849    -0.036530469016    -0.427451914589   126.904471900000
      Gh(N)          -0.258925696151     0.260539530984     3.048598085411    14.003074004430
      Gh(H)           0.031124303849    -0.600050469016     3.495278085411     1.007825032230
      Gh(H)           0.325074303849     1.016799530984     3.382198085411     1.007825032230
      Gh(H)          -1.220405696151     0.452869530984     3.299258085411     1.007825032230

  Running in c1 symmetry.

  Rotational constants: A =      6.16450  B =      0.08693  C =      0.08693 [cm^-1]
  Rotational constants: A = 184807.06449  B =   2606.10269  C =   2606.10259 [MHz]
  Nuclear repulsion =    7.650438279290174

  Charge       = 0
  Multiplicity = 1
  Electrons    = 26
  Nalpha       = 13
  Nbeta        = 13

  ==> Algorithm <==

  SCF Algorithm Type is DF.
  DIIS enabled.
  MOM disabled.
  Fractional occupation disabled.
  Guess Type is SAD.
  Energy threshold   = 1.00e-08
  Density threshold  = 1.00e-08
  Integral threshold = 1.00e-12

  ==> Primary Basis <==

  Basis Set: THIS_BASIS
    Blend: DEF2-QZVPP
    Number of shells: 79
    Number of basis functions: 259
    Number of Cartesian functions: 316
    Spherical Harmonics?: true
    Max angular momentum: 4

  Core potential: THIS_BASIS
    Number of shells: 4
    Number of ECP primitives: 29
    Number of ECP core electrons: 28
    Max angular momentum: 3

  ==> DFT Potential <==

   => LibXC <=

    Version 6.2.2
    S. Lehtola, C. Steigemann, M. J.T. Oliveira, and M. A.L. Marques.,  SoftwareX 7, 15 (2018) (10.1016/j.softx.2017.11.002)

   => Composite Functional: PBE0 <= 

    PBE0 Hyb-GGA Exchange-Correlation Functional

    C. Adamo and V. Barone.,  J. Chem. Phys. 110, 6158 (1999) (10.1063/1.478522)
    M. Ernzerhof and G. E. Scuseria.,  J. Chem. Phys. 110, 5029 (1999) (10.1063/1.478401)

    Deriv               =              1
    GGA                 =           TRUE
    Meta                =          FALSE

    Exchange Hybrid     =           TRUE
    MP2 Hybrid          =          FALSE

   => Exchange Functionals <=

    0.7500   Perdew, Burke & Ernzerhof

   => Exact (HF) Exchange <=

    0.2500               HF 

   => Correlation Functionals <=

    1.0000   Perdew, Burke & Ernzerhof

   => LibXC Density Thresholds  <==

    XC_HYB_GGA_XC_PBEH:  1.00E-15 

   => Asymptotic Correction <=

    X Functional        =    XC_GGA_X_LB
    C Functional        =   XC_LDA_C_VWN
    Bulk Shift          =       0.094577
    GRAC Alpha          =       0.500000
    GRAC Beta           =      40.000000

   => Molecular Quadrature <=

    Radial Scheme          =       TREUTLER
    Pruning Scheme         =           NONE
    Nuclear Scheme         =       TREUTLER

    Blocking Scheme        =         OCTREE
    BS radius alpha        =              1
    Pruning alpha          =              1
    Radial Points          =             75
    Spherical Points       =            302
    Total Points           =         130371
    Total Blocks           =           1028
    Max Points             =            256
    Max Functions          =            250
    Weights Tolerance      =       1.00E-15

   => Loading Basis Set <=

    Name: (THIS_BASIS AUX)
    Role: JKFIT
    Keyword: DF_BASIS_SCF
    atoms 1, 4-6 entry H          line    18 file /home/vance/anaconda3/envs/p4env/share/psi4/basis/def2-universal-jkfit.gbs 
    atoms 2      entry I          line  4980 file /home/vance/anaconda3/envs/p4env/share/psi4/basis/def2-universal-jkfit.gbs 
    atoms 3      entry N          line   258 file /home/vance/anaconda3/envs/p4env/share/psi4/basis/def2-universal-jkfit.gbs 

  ==> Integral Setup <==

  ==> DiskDFJK: Density-Fitted J/K Matrices <==

    J tasked:                  Yes
    K tasked:                  Yes
    wK tasked:                  No
    OpenMP threads:              4
    Integrals threads:           4
    Memory [MiB]:             4952
    Algorithm:                Core
    Integral Cache:           SAVE
    Schwarz Cutoff:          1E-12
    Fitting Condition:       1E-10

   => Auxiliary Basis Set <=

  Basis Set: (THIS_BASIS AUX)
    Blend: DEF2-UNIVERSAL-JKFIT
    Number of shells: 95
    Number of basis functions: 367
    Number of Cartesian functions: 482
    Spherical Harmonics?: true
    Max angular momentum: 5

  Cached 100.0% of DFT collocation blocks in 0.751 [GiB].

  Minimum eigenvalue in the overlap matrix is 1.1130425039E-04.
  Reciprocal condition number of the overlap matrix is 1.3301078889E-05.
    Using symmetric orthogonalization.

  ==> Pre-Iterations <==

  SCF Guess: Superposition of Atomic Densities via on-the-fly atomic UHF (no occupation information).

   -------------------------
    Irrep   Nso     Nmo    
   -------------------------
     A        259     259 
   -------------------------
    Total     259     259
   -------------------------

  ==> Iterations <==

                           Total Energy        Delta E     RMS |[F,P]|

   @DF-RKS iter SAD:  -295.72658988648573   -2.95727e+02   0.00000e+00 
   @DF-RKS iter   1:  -297.78245716905980   -2.05587e+00   4.29149e-03 DIIS/ADIIS
   @DF-RKS iter   2:  -297.77954229044087    2.91488e-03   4.69197e-03 DIIS/ADIIS
   @DF-RKS iter   3:  -298.30858554116799   -5.29043e-01   5.06216e-04 DIIS/ADIIS
   @DF-RKS iter   4:  -298.31065601980993   -2.07048e-03   4.67542e-04 DIIS/ADIIS
   @DF-RKS iter   5:  -298.31509649753548   -4.44048e-03   2.62747e-05 DIIS
   @DF-RKS iter   6:  -298.31512441584550   -2.79183e-05   8.81215e-06 DIIS
   @DF-RKS iter   7:  -298.31512788486043   -3.46901e-06   4.13852e-07 DIIS
   @DF-RKS iter   8:  -298.31512782460538    6.02550e-08   1.45950e-07 DIIS
   @DF-RKS iter   9:  -298.31512782728112   -2.67573e-09   4.92442e-08 DIIS
   @DF-RKS iter  10:  -298.31512782871312   -1.43200e-09   6.84703e-09 DIIS
  Energy and wave function converged.


  ==> Post-Iterations <==

   Electrons on quadrature grid:
      Ntotal   =   26.0000004535 ; deviation = 4.535e-07 

    Orbital Energies [Eh]
    ---------------------

    Doubly Occupied:                                                      

       1A     -7.006249     2A     -5.021202     3A     -5.009452  
       4A     -5.009452     5A     -2.048229     6A     -2.044192  
       7A     -2.044192     8A     -2.034073     9A     -2.034073  
      10A     -0.817466    11A     -0.505696    12A     -0.385870  
      13A     -0.385870  

    Virtual:                                                              

      14A     -0.150819    15A     -0.035047    16A     -0.005133  
      17A      0.008092    18A      0.008093    19A      0.046234  
      20A      0.046235    21A      0.052310    22A      0.078372  
      23A      0.078373    24A      0.094190    25A      0.094197  
      26A      0.173509    27A      0.182711    28A      0.210507  
      29A      0.210516    30A      0.258471    31A      0.351389  
      32A      0.408909    33A      0.408925    34A      0.423177  
      35A      0.423179    36A      0.504808    37A      0.504810  
      38A      0.517196    39A      0.518521    40A      0.520383  
      41A      0.554729    42A      0.554731    43A      0.584974  
      44A      0.636455    45A      0.679838    46A      0.679840  
      47A      0.697062    48A      0.697066    49A      0.706834  
      50A      0.706837    51A      0.738251    52A      0.783795  
      53A      0.783802    54A      0.801305    55A      0.830619  
      56A      0.854198    57A      0.854218    58A      0.870077  
      59A      0.897728    60A      0.973389    61A      0.973410  
      62A      1.012313    63A      1.063464    64A      1.063469  
      65A      1.142301    66A      1.161091    67A      1.161094  
      68A      1.168007    69A      1.168012    70A      1.184006  
      71A      1.184009    72A      1.244353    73A      1.244355  
      74A      1.257733    75A      1.344263    76A      1.381289  
      77A      1.381299    78A      1.397647    79A      1.596064  
      80A      1.596067    81A      1.691295    82A      1.733931  
      83A      1.734155    84A      1.744780    85A      1.744780  
      86A      1.838069    87A      1.838072    88A      1.932793  
      89A      2.028041    90A      2.043496    91A      2.043507  
      92A      2.139961    93A      2.139986    94A      2.235097  
      95A      2.235101    96A      2.296898    97A      2.347366  
      98A      2.387949    99A      2.387959   100A      2.413728  
     101A      2.413741   102A      2.468484   103A      2.468507  
     104A      2.488864   105A      2.488865   106A      2.556609  
     107A      2.579352   108A      2.586277   109A      2.586312  
     110A      2.665361   111A      2.665371   112A      2.707752  
     113A      2.756924   114A      2.767836   115A      2.767841  
     116A      2.828687   117A      2.828708   118A      2.847526  
     119A      2.860319   120A      2.860353   121A      2.876480  
     122A      2.983496   123A      2.990390   124A      2.990392  
     125A      3.084660   126A      3.165903   127A      3.165905  
     128A      3.172351   129A      3.172647   130A      3.181112  
     131A      3.181149   132A      3.279280   133A      3.296906  
     134A      3.311646   135A      3.311660   136A      3.382286  
     137A      3.527481   138A      3.527492   139A      3.567415  
     140A      3.611982   141A      3.612011   142A      3.746799  
     143A      3.894371   144A      3.894391   145A      4.103885  
     146A      4.247414   147A      4.251660   148A      4.396198  
     149A      4.400150   150A      4.400155   151A      4.908762  
     152A      4.908771   153A      5.280948   154A      5.660471  
     155A      5.668199   156A      5.788173   157A      5.788178  
     158A      5.817991   159A      5.889149   160A      5.889160  
     161A      6.134840   162A      6.134869   163A      6.336629  
     164A      6.336632   165A      6.419338   166A      6.424794  
     167A      6.424834   168A      6.592436   169A      6.678980  
     170A      6.679000   171A      6.933980   172A      7.035545  
     173A      7.035574   174A      7.253125   175A      7.289892  
     176A      7.289920   177A      7.515926   178A      7.519354  
     179A      7.577588   180A      7.577590   181A      7.683001  
     182A      7.683023   183A      7.815971   184A      7.816173  
     185A      7.822830   186A      7.998955   187A      8.033974  
     188A      8.033983   189A      8.036835   190A      8.280616  
     191A      8.283416   192A      8.283455   193A      8.421790  
     194A      8.421800   195A      8.478244   196A      8.478268  
     197A      8.607723   198A      8.644822   199A      8.644828  
     200A      8.666904   201A      8.829420   202A      8.851477  
     203A      8.868882   204A      8.868890   205A      9.041101  
     206A      9.062664   207A      9.074623   208A      9.074663  
     209A      9.199391   210A      9.199400   211A      9.319427  
     212A      9.349123   213A      9.599346   214A      9.599360  
     215A      9.647543   216A      9.838898   217A      9.933514  
     218A      9.933524   219A     10.115349   220A     10.115368  
     221A     10.152309   222A     10.541347   223A     10.541352  
     224A     10.899705   225A     10.899711   226A     11.050192  
     227A     11.328944   228A     11.328945   229A     11.331827  
     230A     11.331886   231A     11.438740   232A     11.438741  
     233A     11.584922   234A     11.660019   235A     11.660033  
     236A     11.757749   237A     12.212573   238A     12.212595  
     239A     12.625064   240A     13.539420   241A     13.724252  
     242A     13.724265   243A     14.038289   244A     14.051663  
     245A     14.133106   246A     14.133126   247A     14.429969  
     248A     14.429980   249A     14.486012   250A     15.967137  
     251A     18.130596   252A     18.130636   253A     25.390397  
     254A     39.530749   255A     39.530749   256A     39.657870  
     257A     70.157737   258A     78.390570   259A    318.538720  

    Final Occupation by Irrep:
              A 
    DOCC [    13 ]
    NA   [    13 ]
    NB   [    13 ]

  @DF-RKS Final Energy:  -298.31512782871312

   => Energetics <=

    Nuclear Repulsion Energy =              7.6504382792901735
    One-Electron Energy =                -533.7188399945339370
    Two-Electron Energy =                 244.9373406479123219
    DFT Exchange-Correlation Energy =     -17.1840667613815725
    Empirical Dispersion Energy =           0.0000000000000000
    VV10 Nonlocal Energy =                  0.0000000000000000
    Total Energy =                       -298.3151278287130594

Computation Completed


Properties will be evaluated at   0.000000,   0.000000,   0.000000 [a0]

Properties computed using the SCF density matrix


 Multipole Moments:

 ------------------------------------------------------------------------------------
     Multipole            Electronic (a.u.)      Nuclear  (a.u.)        Total (a.u.)
 ------------------------------------------------------------------------------------

 L = 1.  Multiply by 2.5417464519 to convert [e a0] to [Debye]
 Dipole X            :         -1.5237346            1.5080239           -0.0157107
 Dipole Y            :          1.5332954           -1.5174920            0.0158034
 Dipole Z            :         17.9424795          -17.7576426            0.1848369
 Magnitude           :                                                    0.1861753

 ------------------------------------------------------------------------------------

*** tstop() called on cmpsrv002 at Thu Sep 19 13:59:38 2024
Module time:
	user time   =      43.05 seconds =       0.72 minutes
	system time =       2.64 seconds =       0.04 minutes
	total time  =         50 seconds =       0.83 minutes
Total time:
	user time   =     104.11 seconds =       1.74 minutes
	system time =       9.03 seconds =       0.15 minutes
	total time  =        133 seconds =       2.22 minutes
   => Libint2 <=

    Primary   basis highest AM E, G, H:  6, 6, 3
    Auxiliary basis highest AM E, G, H:  7, 7, 4
    Onebody   basis highest AM E, G, H:  -, -, -
    Solid Harmonics ordering:            Gaussian

*** tstart() called on cmpsrv002
*** at Thu Sep 19 13:59:38 2024

   => Loading Basis Set <=

    Name: THIS_BASIS
    Role: ORBITAL
    Keyword: BASIS
    atoms 1, 4-6 entry H          line    15 file /home/vance/anaconda3/envs/p4env/share/psi4/basis/def2-qzvpp.gbs 
    atoms 2      entry I          line  3401 (ECP: line  4988) file /home/vance/anaconda3/envs/p4env/share/psi4/basis/def2-qzvpp.gbs 
    atoms 3      entry N          line   242 file /home/vance/anaconda3/envs/p4env/share/psi4/basis/def2-qzvpp.gbs 

    !!!  WARNING: ECP capability is in beta. Please check occupations closely.  !!!


         ---------------------------------------------------------
                          SAPT(DFT): DFT Monomer B                 
         ---------------------------------------------------------
                                   SCF
               by Justin Turney, Rob Parrish, Andy Simmonett
                          and Daniel G. A. Smith
                              RKS Reference
                        4 Threads,   7629 MiB Core
         ---------------------------------------------------------

  ==> Geometry <==

    Molecular point group: c1
    Full point group: C1

    Geometry (in Angstrom), charge = 0, multiplicity = 1:

       Center              X                  Y                   Z               Mass       
    ------------   -----------------  -----------------  -----------------  -----------------
      Gh(H)          -0.109595696151     0.110239530984     1.289358085411     1.007825032230
      Gh(I)           0.036304303849    -0.036530469016    -0.427451914589   126.904471900000
         N           -0.258925696151     0.260539530984     3.048598085411    14.003074004430
         H            0.031124303849    -0.600050469016     3.495278085411     1.007825032230
         H            0.325074303849     1.016799530984     3.382198085411     1.007825032230
         H           -1.220405696151     0.452869530984     3.299258085411     1.007825032230

  Running in c1 symmetry.

  Rotational constants: A =      6.16450  B =      0.08693  C =      0.08693 [cm^-1]
  Rotational constants: A = 184807.06449  B =   2606.10269  C =   2606.10259 [MHz]
  Nuclear repulsion =   11.944033846156771

  Charge       = 0
  Multiplicity = 1
  Electrons    = 10
  Nalpha       = 5
  Nbeta        = 5

  ==> Algorithm <==

  SCF Algorithm Type is DF.
  DIIS enabled.
  MOM disabled.
  Fractional occupation disabled.
  Guess Type is SAD.
  Energy threshold   = 1.00e-08
  Density threshold  = 1.00e-08
  Integral threshold = 1.00e-12

  ==> Primary Basis <==

  Basis Set: THIS_BASIS
    Blend: DEF2-QZVPP
    Number of shells: 79
    Number of basis functions: 259
    Number of Cartesian functions: 316
    Spherical Harmonics?: true
    Max angular momentum: 4

  Core potential: THIS_BASIS
    Number of shells: 4
    Number of ECP primitives: 29
    Number of ECP core electrons: 0
    Max angular momentum: 3

  ==> DFT Potential <==

   => LibXC <=

    Version 6.2.2
    S. Lehtola, C. Steigemann, M. J.T. Oliveira, and M. A.L. Marques.,  SoftwareX 7, 15 (2018) (10.1016/j.softx.2017.11.002)

   => Composite Functional: PBE0 <= 

    PBE0 Hyb-GGA Exchange-Correlation Functional

    C. Adamo and V. Barone.,  J. Chem. Phys. 110, 6158 (1999) (10.1063/1.478522)
    M. Ernzerhof and G. E. Scuseria.,  J. Chem. Phys. 110, 5029 (1999) (10.1063/1.478401)

    Deriv               =              1
    GGA                 =           TRUE
    Meta                =          FALSE

    Exchange Hybrid     =           TRUE
    MP2 Hybrid          =          FALSE

   => Exchange Functionals <=

    0.7500   Perdew, Burke & Ernzerhof

   => Exact (HF) Exchange <=

    0.2500               HF 

   => Correlation Functionals <=

    1.0000   Perdew, Burke & Ernzerhof

   => LibXC Density Thresholds  <==

    XC_HYB_GGA_XC_PBEH:  1.00E-15 

   => Asymptotic Correction <=

    X Functional        =    XC_GGA_X_LB
    C Functional        =   XC_LDA_C_VWN
    Bulk Shift          =       0.113162
    GRAC Alpha          =       0.500000
    GRAC Beta           =      40.000000

   => Molecular Quadrature <=

    Radial Scheme          =       TREUTLER
    Pruning Scheme         =           NONE
    Nuclear Scheme         =       TREUTLER

    Blocking Scheme        =         OCTREE
    BS radius alpha        =              1
    Pruning alpha          =              1
    Radial Points          =             75
    Spherical Points       =            302
    Total Points           =         130371
    Total Blocks           =           1028
    Max Points             =            256
    Max Functions          =            250
    Weights Tolerance      =       1.00E-15

   => Loading Basis Set <=

    Name: (THIS_BASIS AUX)
    Role: JKFIT
    Keyword: DF_BASIS_SCF
    atoms 1, 4-6 entry H          line    18 file /home/vance/anaconda3/envs/p4env/share/psi4/basis/def2-universal-jkfit.gbs 
    atoms 2      entry I          line  4980 file /home/vance/anaconda3/envs/p4env/share/psi4/basis/def2-universal-jkfit.gbs 
    atoms 3      entry N          line   258 file /home/vance/anaconda3/envs/p4env/share/psi4/basis/def2-universal-jkfit.gbs 

  ==> Integral Setup <==

  ==> DiskDFJK: Density-Fitted J/K Matrices <==

    J tasked:                  Yes
    K tasked:                  Yes
    wK tasked:                  No
    OpenMP threads:              4
    Integrals threads:           4
    Memory [MiB]:             4952
    Algorithm:                Core
    Integral Cache:           SAVE
    Schwarz Cutoff:          1E-12
    Fitting Condition:       1E-10

   => Auxiliary Basis Set <=

  Basis Set: (THIS_BASIS AUX)
    Blend: DEF2-UNIVERSAL-JKFIT
    Number of shells: 95
    Number of basis functions: 367
    Number of Cartesian functions: 482
    Spherical Harmonics?: true
    Max angular momentum: 5

  Cached 100.0% of DFT collocation blocks in 0.751 [GiB].

  Minimum eigenvalue in the overlap matrix is 1.1130425039E-04.
  Reciprocal condition number of the overlap matrix is 1.3301078889E-05.
    Using symmetric orthogonalization.

  ==> Pre-Iterations <==

  SCF Guess: Superposition of Atomic Densities via on-the-fly atomic UHF (no occupation information).

   -------------------------
    Irrep   Nso     Nmo    
   -------------------------
     A        259     259 
   -------------------------
    Total     259     259
   -------------------------

  ==> Iterations <==

                           Total Energy        Delta E     RMS |[F,P]|

   @DF-RKS iter SAD:   -56.06847632086715   -5.60685e+01   0.00000e+00 
   @DF-RKS iter   1:   -56.27973877030418   -2.11262e-01   3.00370e-03 DIIS/ADIIS
   @DF-RKS iter   2:   -56.02068564173572    2.59053e-01   3.93381e-03 DIIS/ADIIS
   @DF-RKS iter   3:   -56.51861826544091   -4.97933e-01   2.10040e-04 DIIS/ADIIS
   @DF-RKS iter   4:   -56.52009478789453   -1.47652e-03   1.80036e-05 DIIS
   @DF-RKS iter   5:   -56.52010179345156   -7.00556e-06   4.82012e-06 DIIS
   @DF-RKS iter   6:   -56.52010188783461   -9.43831e-08   1.90564e-07 DIIS
   @DF-RKS iter   7:   -56.52010185295944    3.48752e-08   2.41837e-08 DIIS
   @DF-RKS iter   8:   -56.52010184419008    8.76936e-09   2.82457e-09 DIIS
  Energy and wave function converged.


  ==> Post-Iterations <==

   Electrons on quadrature grid:
      Ntotal   =   10.0000102921 ; deviation = 1.029e-05 

    Orbital Energies [Eh]
    ---------------------

    Doubly Occupied:                                                      

       1A    -14.471236     2A     -0.986450     3A     -0.591353  
       4A     -0.591351     5A     -0.390534  

    Virtual:                                                              

       6A     -0.085645     7A     -0.016316     8A     -0.016316  
       9A      0.005480    10A      0.046011    11A      0.046055  
      12A      0.055860    13A      0.116148    14A      0.116156  
      15A      0.131367    16A      0.187388    17A      0.262726  
      18A      0.265580    19A      0.265586    20A      0.279563  
      21A      0.279573    22A      0.322464    23A      0.335439  
      24A      0.335550    25A      0.374873    26A      0.374902  
      27A      0.412639    28A      0.424468    29A      0.424470  
      30A      0.505571    31A      0.508199    32A      0.613893  
      33A      0.649305    34A      0.658403    35A      0.658424  
      36A      0.689119    37A      0.689128    38A      0.749517  
      39A      0.808335    40A      0.808340    41A      0.861446  
      42A      0.861458    43A      0.930029    44A      0.958380  
      45A      0.958733    46A      0.958847    47A      0.958940  
      48A      1.008815    49A      1.008817    50A      1.028071  
      51A      1.078620    52A      1.086412    53A      1.086947  
      54A      1.086949    55A      1.176983    56A      1.228550  
      57A      1.228585    58A      1.238740    59A      1.238796  
      60A      1.272166    61A      1.279695    62A      1.279698  
      63A      1.337542    64A      1.337559    65A      1.386682  
      66A      1.595152    67A      1.628760    68A      1.628786  
      69A      1.698017    70A      1.876459    71A      1.945488  
      72A      1.945495    73A      2.012185    74A      2.022923  
      75A      2.022949    76A      2.039344    77A      2.135168  
      78A      2.135174    79A      2.220795    80A      2.220809  
      81A      2.291856    82A      2.291870    83A      2.309327  
      84A      2.309341    85A      2.365753    86A      2.411588  
      87A      2.466437    88A      2.466449    89A      2.504929  
      90A      2.518212    91A      2.520304    92A      2.523574  
      93A      2.523576    94A      2.576678    95A      2.635552  
      96A      2.635564    97A      2.673731    98A      2.673749  
      99A      2.675027   100A      2.809807   101A      2.809840  
     102A      2.860783   103A      2.863569   104A      2.863599  
     105A      2.884703   106A      2.900127   107A      2.900215  
     108A      3.047558   109A      3.065896   110A      3.065905  
     111A      3.074476   112A      3.074691   113A      3.077334  
     114A      3.077378   115A      3.160489   116A      3.193151  
     117A      3.228737   118A      3.228748   119A      3.274364  
     120A      3.296543   121A      3.296556   122A      3.332697  
     123A      3.332702   124A      3.477987   125A      3.484435  
     126A      3.484438   127A      3.559908   128A      3.559914  
     129A      3.611883   130A      3.775259   131A      3.775308  
     132A      3.797371   133A      3.803391   134A      3.960198  
     135A      3.960213   136A      4.121937   137A      4.198013  
     138A      4.198024   139A      4.206984   140A      4.464314  
     141A      4.886286   142A      4.957185   143A      4.957206  
     144A      5.727695   145A      5.727702   146A      5.831420  
     147A      5.831426   148A      5.886168   149A      5.913286  
     150A      5.913293   151A      5.920931   152A      6.139262  
     153A      6.148234   154A      6.277748   155A      6.310699  
     156A      6.310721   157A      6.432411   158A      6.468049  
     159A      6.468079   160A      6.530987   161A      6.531004  
     162A      6.816453   163A      6.828815   164A      6.828835  
     165A      6.906401   166A      7.063295   167A      7.063305  
     168A      7.153131   169A      7.153139   170A      7.199042  
     171A      7.226439   172A      7.226473   173A      7.395825  
     174A      7.539893   175A      7.567779   176A      7.567801  
     177A      7.708127   178A      7.708142   179A      7.734590  
     180A      7.830100   181A      7.890300   182A      7.890310  
     183A      7.930403   184A      8.058081   185A      8.064256  
     186A      8.064321   187A      8.116820   188A      8.149367  
     189A      8.189734   190A      8.215974   191A      8.215978  
     192A      8.404197   193A      8.404219   194A      8.451578  
     195A      8.508908   196A      8.508940   197A      8.693102  
     198A      8.697204   199A      8.697401   200A      8.804632  
     201A      8.804651   202A      9.014460   203A      9.014470  
     204A      9.093733   205A      9.176313   206A      9.176323  
     207A      9.473962   208A      9.473965   209A      9.487019  
     210A      9.616974   211A      9.616976   212A      9.775875  
     213A      9.800938   214A      9.908375   215A      9.968650  
     216A      9.968662   217A     10.128120   218A     10.278213  
     219A     10.463887   220A     10.463995   221A     10.471266  
     222A     10.471269   223A     10.642814   224A     10.642815  
     225A     11.062376   226A     11.107879   227A     11.116690  
     228A     11.116702   229A     11.567680   230A     11.574720  
     231A     11.574736   232A     11.746417   233A     11.746443  
     234A     11.892575   235A     13.649387   236A     13.649387  
     237A     14.271816   238A     14.276813   239A     14.276837  
     240A     14.481288   241A     14.481289   242A     14.548066  
     243A     14.548075   244A     15.106690   245A     15.177672  
     246A     32.346142   247A     32.346174   248A     32.347826  
     249A     32.347827   250A     32.406888   251A     32.406889  
     252A     32.564116   253A     36.009920   254A     38.294053  
     255A     90.819048   256A     90.819052   257A     90.892188  
     258A    167.653761   259A    197.786123  

    Final Occupation by Irrep:
              A 
    DOCC [     5 ]
    NA   [     5 ]
    NB   [     5 ]

  @DF-RKS Final Energy:   -56.52010184419008

   => Energetics <=

    Nuclear Repulsion Energy =             11.9440338461567706
    One-Electron Energy =                 -99.6856833747143867
    Two-Electron Energy =                  37.2644475835269802
    DFT Exchange-Correlation Energy =      -6.0428998991594458
    Empirical Dispersion Energy =           0.0000000000000000
    VV10 Nonlocal Energy =                  0.0000000000000000
    Total Energy =                        -56.5201018441900800

Computation Completed


Properties will be evaluated at   0.000000,   0.000000,   0.000000 [a0]

Properties computed using the SCF density matrix


 Multipole Moments:

 ------------------------------------------------------------------------------------
     Multipole            Electronic (a.u.)      Nuclear  (a.u.)        Total (a.u.)
 ------------------------------------------------------------------------------------

 L = 1.  Multiply by 2.5417464519 to convert [e a0] to [Debye]
 Dipole X            :          5.0103687           -5.0582053           -0.0478365
 Dipole Y            :         -5.0416365            5.0897795            0.0481430
 Dipole Z            :        -58.9943632           59.5583487            0.5639855
 Magnitude           :                                                    0.5680543

 ------------------------------------------------------------------------------------

*** tstop() called on cmpsrv002 at Thu Sep 19 14:00:23 2024
Module time:
	user time   =      46.20 seconds =       0.77 minutes
	system time =       2.05 seconds =       0.03 minutes
	total time  =         45 seconds =       0.75 minutes
Total time:
	user time   =     150.33 seconds =       2.51 minutes
	system time =      11.08 seconds =       0.18 minutes
	total time  =        178 seconds =       2.97 minutes

         ---------------------------------------------------------
               SAPT(DFT): Intermolecular Interaction Segment       

                   by Daniel G. A. Smith and Rob Parrish           
         ---------------------------------------------------------

  ==> Algorithm <==

   SAPT DFT Functional             PBE0
   Monomer A GRAC Shift        0.094577
   Monomer B GRAC Shift        0.113162
   Delta HF                        True
   JK Algorithm                      DF

  ==> Preparing SAPT Data Cache <== 

  ==> DiskDFJK: Density-Fitted J/K Matrices <==

    J tasked:                  Yes
    K tasked:                  Yes
    wK tasked:                  No
    OpenMP threads:              4
    Integrals threads:           4
    Memory [MiB]:             4952
    Algorithm:                Core
    Integral Cache:           SAVE
    Schwarz Cutoff:          1E-12
    Fitting Condition:       1E-10

   => Auxiliary Basis Set <=

  Basis Set: (THIS_BASIS AUX)
    Blend: DEF2-UNIVERSAL-JKFIT
    Number of shells: 95
    Number of basis functions: 367
    Number of Cartesian functions: 482
    Spherical Harmonics?: true
    Max angular momentum: 5


  ==> E10 Electostatics <== 

    Elst10,r                        -29.23445376 [mEh]

  ==> E10 Exchange <== 

    Exch10(S^2)                      46.21055099 [mEh]
    Exch10                           48.12832894 [mEh]

  ==> E20 Induction <== 

   => Uncoupled Induction <= 

    Ind20,u (A<-B)                  -10.87904230 [mEh]
    Ind20,u (A->B)                   -9.61396628 [mEh]
    Ind20,u                         -20.49300858 [mEh]
    Exch-Ind20,u (A<-B)               6.88567735 [mEh]
    Exch-Ind20,u (A->B)               3.61654426 [mEh]
    Exch-Ind20,u                     10.50222161 [mEh]
    Exch-Ind20,u (A<-B) (S^inf)       7.49824712 [mEh]
    Exch-Ind20,u (A->B) (S^inf)       4.28520492 [mEh]
    Exch-Ind20,u (S^inf)             11.78345204 [mEh]

   => Coupled Induction <= 

   ---------------------------------------------------
              SAPT Coupled Induction Solver           
   ---------------------------------------------------
    Maxiter             =          20
    Convergence         =   1.000E-06
   ---------------------------------------------------
     Iter       (A<-B)           (B->A)      Time [s]
   ---------------------------------------------------
    Guess    2.494475e-01     1.586367e-01         10
        1    5.508183e-02     4.991659e-02         17
        2    1.477642e-02     1.912889e-02         31
        3    1.993895e-03     1.915859e-03         45
        4    6.867146e-04     1.451898e-04         60
        5    6.658162e-05     9.510665e-06         76
        6    8.470403e-06     1.042512e-06         91
        7    1.005771e-06     1.029908e-07*       104
        8    1.565278e-07*    1.029908e-07*       110
   ---------------------------------------------------

    Ind20,r (A<-B)                  -10.62054349 [mEh]
    Ind20,r (A->B)                  -10.30972350 [mEh]
    Ind20,r                         -20.93026698 [mEh]
    Exch-Ind20,r (A<-B)               7.80133246 [mEh]
    Exch-Ind20,r (A->B)               4.17357250 [mEh]
    Exch-Ind20,r                     11.97490496 [mEh]
    Exch-Ind20,r (A<-B) (S^inf)       8.50361552 [mEh]
    Exch-Ind20,r (A->B) (S^inf)       4.93555770 [mEh]
    Exch-Ind20,r (S^inf)             13.43917322 [mEh]
   => Loading Basis Set <=

    Name: (THIS_BASIS AUX)
    Role: RIFIT
    Keyword: DF_BASIS_MP2
    atoms 1, 4-6 entry H          line    24 file /home/vance/anaconda3/envs/p4env/share/psi4/basis/def2-qzvpp-ri.gbs 
    atoms 2      entry I          line  4948 file /home/vance/anaconda3/envs/p4env/share/psi4/basis/def2-qzvpp-ri.gbs 
    atoms 3      entry N          line   338 file /home/vance/anaconda3/envs/p4env/share/psi4/basis/def2-qzvpp-ri.gbs 



  ==> E20 Dispersion (CHF FDDS) <== 

   Legendre Points:          10
   Lambda Shift:          0.300
   Fxc Kernal:             ALDA
   (P|Fxc|Q) Thresh:  1.000e-06
  DFHelper Memory: AOs need 0.321 GiB; user supplied 5.960 GiB. 
  Using in-core AOs.

  ==> DFHelper <==
    NBF:                             259
    NAux:                            641
    Schwarz Cutoff:                1E-12
    Mask sparsity (%):                 8
    DFH Avail. Memory [GiB]:       5.960
    OpenMP threads:                    4
    Algorithm:                    DIRECT
    AO Core:                        True
    MO Core:                       False
    Hold Metric:                   False
    Metric Power:                  0.000
    Fitting Condition:             1E-12
    Q Shell Max:                      13


  DFHelper Memory: AOs need 0.345 GiB; user supplied 5.960 GiB. 
  Using in-core AOs.


   => Time Integration <= 

       Omega       Weight       Disp20,u         Disp20   time [s]
   2.269e+01    6.667e-02      2.352e-04      2.210e-04          1
   4.147e+00    1.495e-01      4.229e-03      3.804e-03          3
   1.572e+00    2.191e-01      1.290e-02      1.076e-02          6
   7.589e-01    2.693e-01      2.198e-02      1.664e-02         11
   4.049e-01    2.955e-01      2.575e-02      1.765e-02         15
   2.223e-01    2.955e-01      2.255e-02      1.441e-02         18
   1.186e-01    2.693e-01      1.619e-02      9.999e-03         21
   5.727e-02    2.191e-01      1.032e-02      6.294e-03         24
   2.170e-02    1.495e-01      5.820e-03      3.540e-03         27
   3.966e-03    6.667e-02      2.326e-03      1.414e-03         30

    Disp20,u                        -19.46250395 [mEh]
    Disp20                          -13.48328024 [mEh]

  ==> E20 Dispersion (MP2) <== 


    Disp20 (MP2)                    -19.43584816 [mEh]
    Exch-Disp20,u                     4.06349767 [mEh]
    Scaling Scheme                    FIXED
    Scaling Factor                    0.770
    Est. Exch-Disp20,r                3.12889320 [mEh]

   SAPT(DFT) Results
  ---------------------------------------------------------------------------------------------------------
    Electrostatics                  -29.23445376 [mEh]    -18.34489670 [kcal/mol]    -76.75504777 [kJ/mol]
      Elst1,r                       -29.23445376 [mEh]    -18.34489670 [kcal/mol]    -76.75504777 [kJ/mol]

    Exchange                         48.12832894 [mEh]     30.20098237 [kcal/mol]    126.36091022 [kJ/mol]
      Exch1                          48.12832894 [mEh]     30.20098237 [kcal/mol]    126.36091022 [kJ/mol]
      Exch1(S^2)                     46.21055099 [mEh]     28.99755854 [kcal/mol]    121.32578492 [kJ/mol]

    Induction                       -23.03770524 [mEh]    -14.45637829 [kcal/mol]    -60.48548678 [kJ/mol]
      Ind2,r                        -20.93026698 [mEh]    -13.13394082 [kcal/mol]    -54.95240839 [kJ/mol]
      Exch-Ind2,r                    11.97490496 [mEh]      7.51436631 [kcal/mol]     31.44010865 [kJ/mol]
      Induction (A<-B)               -2.81921102 [mEh]     -1.76908163 [kcal/mol]     -7.40183752 [kJ/mol]
      Induction (A->B)               -6.13615100 [mEh]     -3.85049288 [kcal/mol]    -16.11046223 [kJ/mol]
      delta HF,r (2)                -14.08234322 [mEh]     -8.83680378 [kcal/mol]    -36.97318703 [kJ/mol]

    Dispersion                      -10.35438703 [mEh]     -6.49747596 [kcal/mol]    -27.18543941 [kJ/mol]
      Disp2,r                       -13.48328024 [mEh]     -8.46088609 [kcal/mol]    -35.40034739 [kJ/mol]
      Disp2,u                       -19.43584816 [mEh]    -12.19617885 [kcal/mol]    -51.02881233 [kJ/mol]
      Est. Exch-Disp2,r               3.12889320 [mEh]      1.96341013 [kcal/mol]      8.21490797 [kJ/mol]
      Exch-Disp2,u                    4.06349767 [mEh]      2.54988328 [kcal/mol]     10.66871165 [kJ/mol]

    Total SAPT(DFT)                 -14.49821709 [mEh]     -9.09776858 [kcal/mol]    -38.06506374 [kJ/mol]
  ---------------------------------------------------------------------------------------------------------

*** tstop() called on cmpsrv002 at Thu Sep 19 14:31:31 2024
Module time:
	user time   =     470.21 seconds =       7.84 minutes
	system time =      24.77 seconds =       0.41 minutes
	total time  =       1913 seconds =      31.88 minutes
Total time:
	user time   =     574.34 seconds =       9.57 minutes
	system time =      33.80 seconds =       0.56 minutes
	total time  =       2046 seconds =      34.10 minutes

Traceback (most recent call last):
  File "/home/vance/anaconda3/envs/p4env/bin/psi4", line 387, in <module>
    exec(content)
  File "<string>", line 61, in <module>
  File "/home/vance/anaconda3/envs/p4env/lib/python3.12/site-packages/psi4/driver/p4util/python_helpers.py", line 1121, in _core_variable
    raise KeyError(f"psi4.core.variable: Requested variable '{key}' was not set!\n")

KeyError: "psi4.core.variable: Requested variable 'SAPT IND20,R ENERGY' was not set!\n"


Printing out the relevant lines from the Psithon --> Python processed input file:
    eelst = psi4.core.variable('SAPT ELST ENERGY')
    eexch = psi4.core.variable('SAPT EXCH ENERGY')
    eind = psi4.core.variable('SAPT IND ENERGY')
    edisp = psi4.core.variable('SAPT DISP ENERGY')
    esapt = psi4.core.variable('SAPT TOTAL ENERGY')
--> eind20r = psi4.core.variable('SAPT IND20,R ENERGY')
    eexind20r = psi4.core.variable('SAPT EXCH-IND20,R ENERGY')
    eind20u = psi4.core.variable('SAPT IND20,U ENERGY')
    eexind20u = psi4.core.variable('SAPT EXCH-IND20,U ENERGY')
    edisp20 = psi4.core.variable('SAPT DISP20 ENERGY')
    eexdisp20 = psi4.core.variable('SAPT EXCH-DISP20 ENERGY')

!--------------------------------------------------------------------------------!
!                                                                                !
!  "psi4.core.variable: Requested variable 'SAPT IND20,R ENERGY' was not set!\n" !
!                                                                                !
!--------------------------------------------------------------------------------!

    Psi4 stopped on: Thursday, 19 September 2024 02:31PM
    Psi4 wall time for execution: 0:34:06.38

*** Psi4 encountered an error. Buy a developer more coffee!
*** Resources and help at github.com/psi4/psi4.
