
    -----------------------------------------------------------------------
          Psi4: An Open-Source Ab Initio Electronic Structure Package
                               Psi4 1.9.1 release

                         Git: Rev {} zzzzzzz 


    D. G. A. Smith, L. A. Burns, A. C. Simmonett, R. M. Parrish,
    M. C. Schieber, R. Galvelis, P. Kraus, H. Kruse, R. Di Remigio,
    A. Alenaizan, A. M. James, S. Lehtola, J. P. Misiewicz, M. Scheurer,
    R. A. Shaw, J. B. Schriber, Y. Xie, Z. L. Glick, D. A. Sirianni,
    J. S. O'Brien, J. M. Waldrop, A. Kumar, E. G. Hohenstein,
    B. P. Pritchard, B. R. Brooks, H. F. Schaefer III, A. Yu. Sokolov,
    K. Patkowski, A. E. DePrince III, U. Bozkaya, R. A. King,
    F. A. Evangelista, J. M. Turney, T. D. Crawford, C. D. Sherrill,
    J. Chem. Phys. 152(18) 184108 (2020). https://doi.org/10.1063/5.0006002

                            Additional Code Authors
    E. T. Seidl, C. L. Janssen, E. F. Valeev, M. L. Leininger,
    J. F. Gonthier, R. M. Richard, H. R. McAlexander, M. Saitow, X. Wang,
    P. Verma, M. H. Lechner, A. Jiang, S. Behnle, A. G. Heide,
    M. F. Herbst, and D. L. Poole

             Previous Authors, Complete List of Code Contributors,
                       and Citations for Specific Modules
    https://github.com/psi4/psi4/blob/master/codemeta.json
    https://github.com/psi4/psi4/graphs/contributors
    http://psicode.org/psi4manual/master/introduction.html#citing-psifour

    -----------------------------------------------------------------------


    Psi4 started on: Thursday, 19 September 2024 01:57PM

    Process ID: 605185
    Host:       cmpsrv002
    PSIDATADIR: /home/vance/anaconda3/envs/p4env/share/psi4
    Memory:     500.0 MiB
    Threads:    4
    
  ==> Input File <==

--------------------------------------------------------------------------
#charge=0 charge_a=0 charge_b=0 selection_a=1-2 selection_b=3-6 scaling=1.05 benchmark_Eint=-8.049 benchmark_unit=kcal/mol group=XH-N
set_num_threads(4)
memory 8 GB
basis this_basis {
    assign    def2-qzvpp
}

molecule {
     0 1
    --
     0 1
     H       -0.13083        0.13151       -0.43120
     I        0.01507       -0.01526       -2.14801
    --
     0 1
     N       -0.27337        0.27498        1.24807
     H        0.01668       -0.58561        1.69476
     H        0.31062        1.03124        1.58167
     H       -1.23485        0.46730        1.49874
}

set {
    sapt_dft_functional     PBE0
    scf_type                DF
    freeze_core             true
    sapt_dft_grac_shift_a    0.094577
    sapt_dft_grac_shift_b    0.113162
    sapt_dft_do_hybrid      true
    do_ind_exch_sinf        true
    do_disp_exch_sinf       true
}

nrg = energy('sapt(DFT)')

eelst = psi4.variable('SAPT ELST ENERGY')
eexch = psi4.variable('SAPT EXCH ENERGY')
eind = psi4.variable('SAPT IND ENERGY')
edisp = psi4.variable('SAPT DISP ENERGY')
esapt = psi4.variable('SAPT TOTAL ENERGY')
eind20r = psi4.variable('SAPT IND20,R ENERGY')
eexind20r = psi4.variable('SAPT EXCH-IND20,R ENERGY')
eind20u = psi4.variable('SAPT IND20,U ENERGY')
eexind20u = psi4.variable('SAPT EXCH-IND20,U ENERGY')
edisp20 = psi4.variable('SAPT DISP20 ENERGY')
eexdisp20 = psi4.variable('SAPT EXCH-DISP20 ENERGY')
eexch10 = psi4.variable('SAPT EXCH10 ENERGY')
eexch10s2 = psi4.variable('SAPT EXCH10(S^2) ENERGY')
print('sapt elst energy =', eelst)
print('sapt total induction energy =', eind)
print('sapt total dispersion energy =', edisp)
print('sapt total energy =', esapt)
print('sapt ind20,r energy =', eind20r)
print('sapt exch-ind20,r energy =', eexind20r)
print('sapt ind20,u energy =', eind20u)
print('sapt exch-ind20,u energy =', eexind20u)
print('sapt disp20 (u or r?) energy =', edisp20)
print('sapt exch-disp20 (u or r?) energy =', eexdisp20)
print('sapt exch10 (u or r? which s?) energy =', eexch10)
print('sapt exch10 s^2 (u or r?) energy =', eexch10s2)
--------------------------------------------------------------------------
  Threads set to 4 by Python driver.

  Memory set to   7.451 GiB by Python driver.

Scratch directory: /scratch2/vance/psi4/

*** tstart() called on cmpsrv002
*** at Thu Sep 19 13:57:25 2024


         ---------------------------------------------------------
                            SAPT(DFT) Procedure                    

                           by Daniel G. A. Smith                   
         ---------------------------------------------------------

Warning! The default value of SAPT_DFT_EXCH_DISP_SCALE_SCHEME has changed from DISP to FIXED. Please be careful comparing results with earlier versions. 

  ==> Algorithm <==

   SAPT DFT Functional             PBE0
   Monomer A GRAC Shift        0.094577
   Monomer B GRAC Shift        0.113162
   Delta HF                        True
   JK Algorithm                      DF

   Required computations:
     HF  (Dimer)
     HF  (Monomer A)
     HF  (Monomer B)
     DFT (Monomer A)
     DFT (Monomer B)

   => Libint2 <=

    Primary   basis highest AM E, G, H:  6, 6, 3
    Auxiliary basis highest AM E, G, H:  7, 7, 4
    Onebody   basis highest AM E, G, H:  -, -, -
    Solid Harmonics ordering:            Gaussian

*** tstart() called on cmpsrv002
*** at Thu Sep 19 13:57:25 2024

   => Loading Basis Set <=

    Name: THIS_BASIS
    Role: ORBITAL
    Keyword: BASIS
    atoms 1, 4-6 entry H          line    15 file /home/vance/anaconda3/envs/p4env/share/psi4/basis/def2-qzvpp.gbs 
    atoms 2      entry I          line  3401 (ECP: line  4988) file /home/vance/anaconda3/envs/p4env/share/psi4/basis/def2-qzvpp.gbs 
    atoms 3      entry N          line   242 file /home/vance/anaconda3/envs/p4env/share/psi4/basis/def2-qzvpp.gbs 

    !!!  WARNING: ECP capability is in beta. Please check occupations closely.  !!!


         ---------------------------------------------------------
                         SAPT(DFT): delta HF Dimer                 
         ---------------------------------------------------------
                                   SCF
               by Justin Turney, Rob Parrish, Andy Simmonett
                          and Daniel G. A. Smith
                              RHF Reference
                        4 Threads,   7629 MiB Core
         ---------------------------------------------------------

  ==> Geometry <==

    Molecular point group: c1
    Full point group: C1

    Geometry (in Angstrom), charge = 0, multiplicity = 1:

       Center              X                  Y                   Z               Mass       
    ------------   -----------------  -----------------  -----------------  -----------------
         H           -0.110393275222     0.111041948084     1.298752343834     1.007825032230
         I            0.035506724778    -0.035728051916    -0.418057656166   126.904471900000
         N           -0.252933275222     0.254511948084     2.978022343834    14.003074004430
         H            0.037116724778    -0.606078051916     3.424712343834     1.007825032230
         H            0.331056724778     1.010771948084     3.311622343834     1.007825032230
         H           -1.214413275222     0.446831948084     3.228692343834     1.007825032230

  Running in c1 symmetry.

  Rotational constants: A =      6.16453  B =      0.09091  C =      0.09091 [cm^-1]
  Rotational constants: A = 184808.10807  B =   2725.47432  C =   2725.47412 [MHz]
  Nuclear repulsion =   59.779066371483943

  Charge       = 0
  Multiplicity = 1
  Electrons    = 36
  Nalpha       = 18
  Nbeta        = 18

  ==> Algorithm <==

  SCF Algorithm Type is DF.
  DIIS enabled.
  MOM disabled.
  Fractional occupation disabled.
  Guess Type is SAD.
  Energy threshold   = 1.00e-08
  Density threshold  = 1.00e-08
  Integral threshold = 1.00e-12

  ==> Primary Basis <==

  Basis Set: THIS_BASIS
    Blend: DEF2-QZVPP
    Number of shells: 79
    Number of basis functions: 259
    Number of Cartesian functions: 316
    Spherical Harmonics?: true
    Max angular momentum: 4

  Core potential: THIS_BASIS
    Number of shells: 4
    Number of ECP primitives: 29
    Number of ECP core electrons: 28
    Max angular momentum: 3

   => Loading Basis Set <=

    Name: (THIS_BASIS AUX)
    Role: JKFIT
    Keyword: DF_BASIS_SCF
    atoms 1, 4-6 entry H          line    18 file /home/vance/anaconda3/envs/p4env/share/psi4/basis/def2-universal-jkfit.gbs 
    atoms 2      entry I          line  4980 file /home/vance/anaconda3/envs/p4env/share/psi4/basis/def2-universal-jkfit.gbs 
    atoms 3      entry N          line   258 file /home/vance/anaconda3/envs/p4env/share/psi4/basis/def2-universal-jkfit.gbs 

  ==> Integral Setup <==

  ==> DiskDFJK: Density-Fitted J/K Matrices <==

    J tasked:                  Yes
    K tasked:                  Yes
    wK tasked:                  No
    OpenMP threads:              4
    Integrals threads:           4
    Memory [MiB]:             5722
    Algorithm:                Core
    Integral Cache:           SAVE
    Schwarz Cutoff:          1E-12
    Fitting Condition:       1E-10

   => Auxiliary Basis Set <=

  Basis Set: (THIS_BASIS AUX)
    Blend: DEF2-UNIVERSAL-JKFIT
    Number of shells: 95
    Number of basis functions: 367
    Number of Cartesian functions: 482
    Spherical Harmonics?: true
    Max angular momentum: 5

  Minimum eigenvalue in the overlap matrix is 1.0745550687E-04.
  Reciprocal condition number of the overlap matrix is 1.2709444281E-05.
    Using symmetric orthogonalization.

  ==> Pre-Iterations <==

  SCF Guess: Superposition of Atomic Densities via on-the-fly atomic UHF (no occupation information).

   -------------------------
    Irrep   Nso     Nmo    
   -------------------------
     A        259     259 
   -------------------------
    Total     259     259
   -------------------------

  ==> Iterations <==

                           Total Energy        Delta E     RMS |[F,P]|

   @DF-RHF iter SAD:  -350.10844791944589   -3.50108e+02   0.00000e+00 
   @DF-RHF iter   1:  -353.01942079592902   -2.91097e+00   3.64148e-03 DIIS/ADIIS
   @DF-RHF iter   2:  -353.40033257721467   -3.80912e-01   2.07000e-03 DIIS/ADIIS
   @DF-RHF iter   3:  -353.46511096332051   -6.47784e-02   1.75997e-04 DIIS/ADIIS
   @DF-RHF iter   4:  -353.46691258336375   -1.80162e-03   6.87166e-05 DIIS
   @DF-RHF iter   5:  -353.46720035233784   -2.87769e-04   3.54219e-05 DIIS
   @DF-RHF iter   6:  -353.46725567310597   -5.53208e-05   8.31924e-06 DIIS
   @DF-RHF iter   7:  -353.46726338808088   -7.71497e-06   2.04487e-06 DIIS
   @DF-RHF iter   8:  -353.46726369528722   -3.07206e-07   7.58392e-07 DIIS
   @DF-RHF iter   9:  -353.46726374064758   -4.53604e-08   1.46895e-07 DIIS
   @DF-RHF iter  10:  -353.46726374294946   -2.30187e-09   2.51082e-08 DIIS
   @DF-RHF iter  11:  -353.46726374303012   -8.06608e-11   5.90603e-09 DIIS
  Energy and wave function converged.


  ==> Post-Iterations <==

    Orbital Energies [Eh]
    ---------------------

    Doubly Occupied:                                                      

       1A    -15.595135     2A     -7.696792     3A     -5.548555  
       4A     -5.543235     5A     -5.543235     6A     -2.244277  
       7A     -2.241004     8A     -2.241004     9A     -2.235009  
      10A     -2.235009    11A     -1.198021    12A     -0.862420  
      13A     -0.687012    14A     -0.687008    15A     -0.563338  
      16A     -0.397806    17A     -0.345249    18A     -0.345249  

    Virtual:                                                              

      19A      0.079013    20A      0.135424    21A      0.135425  
      22A      0.141978    23A      0.195679    24A      0.229987  
      25A      0.229991    26A      0.253082    27A      0.253085  
      28A      0.270208    29A      0.303599    30A      0.318985  
      31A      0.318986    32A      0.355840    33A      0.355861  
      34A      0.404604    35A      0.472289    36A      0.485619  
      37A      0.485620    38A      0.523952    39A      0.523954  
      40A      0.565359    41A      0.738804    42A      0.738808  
      43A      0.748172    44A      0.815951    45A      0.815962  
      46A      0.830496    47A      0.846452    48A      0.846830  
      49A      0.859772    50A      0.859775    51A      0.866200  
      52A      0.920936    53A      0.950419    54A      0.950420  
      55A      0.968031    56A      1.002645    57A      1.002646  
      58A      1.007570    59A      1.007582    60A      1.049284  
      61A      1.049311    62A      1.059915    63A      1.059925  
      64A      1.078902    65A      1.101926    66A      1.155520  
      67A      1.155521    68A      1.238821    69A      1.319322  
      70A      1.319335    71A      1.321998    72A      1.379134  
      73A      1.414594    74A      1.453249    75A      1.453272  
      76A      1.592408    77A      1.592409    78A      1.599812  
      79A      1.600311    80A      1.625825    81A      1.625826  
      82A      1.680543    83A      1.729372    84A      1.856475  
      85A      1.856491    86A      1.975474    87A      1.975477  
      88A      2.025710    89A      2.140195    90A      2.140312  
      91A      2.150099    92A      2.150099    93A      2.189350  
      94A      2.189354    95A      2.284706    96A      2.284712  
      97A      2.298272    98A      2.347864    99A      2.372062  
     100A      2.372074   101A      2.392381   102A      2.475908  
     103A      2.475936   104A      2.555948   105A      2.555950  
     106A      2.571484   107A      2.592575   108A      2.592583  
     109A      2.680809   110A      2.680825   111A      2.686634  
     112A      2.741282   113A      2.741331   114A      2.843393  
     115A      2.891554   116A      2.891571   117A      2.955633  
     118A      2.968115   119A      2.968116   120A      2.990191  
     121A      3.067762   122A      3.067784   123A      3.124348  
     124A      3.124392   125A      3.138885   126A      3.160225  
     127A      3.160231   128A      3.180454   129A      3.216420  
     130A      3.262672   131A      3.262678   132A      3.343766  
     133A      3.445168   134A      3.482713   135A      3.482714  
     136A      3.580506   137A      3.643325   138A      3.643337  
     139A      3.772879   140A      3.772879   141A      3.777405  
     142A      3.778244   143A      3.792099   144A      3.913079  
     145A      3.913089   146A      3.943231   147A      4.064486  
     148A      4.064521   149A      4.144502   150A      4.302461  
     151A      4.325745   152A      4.325769   153A      4.513213  
     154A      4.581310   155A      4.605892   156A      4.605894  
     157A      5.331321   158A      5.404846   159A      5.404864  
     160A      6.063352   161A      6.063370   162A      6.065044  
     163A      6.070353   164A      6.095449   165A      6.209268  
     166A      6.209276   167A      6.272204   168A      6.278926  
     169A      6.278947   170A      6.320175   171A      6.320190  
     172A      6.630915   173A      6.663818   174A      6.663900  
     175A      6.730250   176A      6.952393   177A      6.952413  
     178A      6.984047   179A      7.198389   180A      7.211656  
     181A      7.270438   182A      7.270491   183A      7.410427  
     184A      7.410458   185A      7.569887   186A      7.569891  
     187A      7.611271   188A      7.638284   189A      7.638291  
     190A      7.751882   191A      7.942453   192A      7.942484  
     193A      7.998569   194A      8.045517   195A      8.045536  
     196A      8.085047   197A      8.085054   198A      8.111056  
     199A      8.254265   200A      8.261934   201A      8.261965  
     202A      8.377896   203A      8.383436   204A      8.383457  
     205A      8.470348   206A      8.511543   207A      8.511613  
     208A      8.591065   209A      8.601511   210A      8.751970  
     211A      8.757269   212A      8.757316   213A      8.826969  
     214A      8.826988   215A      9.039549   216A      9.044227  
     217A      9.044273   218A      9.104686   219A      9.104730  
     220A      9.263341   221A      9.500550   222A      9.500565  
     223A      9.614267   224A      9.923782   225A      9.923802  
     226A      9.944860   227A     10.088286   228A     10.088296  
     229A     10.259820   230A     10.473155   231A     10.489498  
     232A     10.489505   233A     10.643872   234A     11.597673  
     235A     11.663327   236A     11.663329   237A     12.083791  
     238A     12.094645   239A     12.094665   240A     12.275331  
     241A     12.275377   242A     12.310744   243A     12.310865  
     244A     12.312580   245A     12.312583   246A     12.416377  
     247A     12.425495   248A     12.425496   249A     12.699372  
     250A     14.829056   251A     14.829080   252A     14.878602  
     253A     15.690580   254A     39.421348   255A     40.392249  
     256A     40.392249   257A     40.529489   258A     79.184251  
     259A    200.552188  

    Final Occupation by Irrep:
              A 
    DOCC [    18 ]
    NA   [    18 ]
    NB   [    18 ]

  @DF-RHF Final Energy:  -353.46726374303012

   => Energetics <=

    Nuclear Repulsion Energy =             59.7790663714839425
    One-Electron Energy =                -714.0739362861197606
    Two-Electron Energy =                 300.8276061716056802
    Total Energy =                       -353.4672637430301165

Computation Completed


Properties will be evaluated at   0.000000,   0.000000,   0.000000 [a0]

Properties computed using the SCF density matrix


 Multipole Moments:

 ------------------------------------------------------------------------------------
     Multipole            Electronic (a.u.)      Nuclear  (a.u.)        Total (a.u.)
 ------------------------------------------------------------------------------------

 L = 1.  Multiply by 2.5417464519 to convert [e a0] to [Debye]
 Dipole X            :          3.3071860           -3.4761473           -0.1689613
 Dipole Y            :         -3.3277737            3.4977888            0.1700151
 Dipole Z            :        -38.9388033           40.9286227            1.9898194
 Magnitude           :                                                    2.0042042

 ------------------------------------------------------------------------------------

*** tstop() called on cmpsrv002 at Thu Sep 19 13:57:46 2024
Module time:
	user time   =      15.32 seconds =       0.26 minutes
	system time =       2.08 seconds =       0.03 minutes
	total time  =         21 seconds =       0.35 minutes
Total time:
	user time   =      15.32 seconds =       0.26 minutes
	system time =       2.08 seconds =       0.03 minutes
	total time  =         21 seconds =       0.35 minutes
   => Libint2 <=

    Primary   basis highest AM E, G, H:  6, 6, 3
    Auxiliary basis highest AM E, G, H:  7, 7, 4
    Onebody   basis highest AM E, G, H:  -, -, -
    Solid Harmonics ordering:            Gaussian

*** tstart() called on cmpsrv002
*** at Thu Sep 19 13:57:46 2024

   => Loading Basis Set <=

    Name: THIS_BASIS
    Role: ORBITAL
    Keyword: BASIS
    atoms 1, 4-6 entry H          line    15 file /home/vance/anaconda3/envs/p4env/share/psi4/basis/def2-qzvpp.gbs 
    atoms 2      entry I          line  3401 (ECP: line  4988) file /home/vance/anaconda3/envs/p4env/share/psi4/basis/def2-qzvpp.gbs 
    atoms 3      entry N          line   242 file /home/vance/anaconda3/envs/p4env/share/psi4/basis/def2-qzvpp.gbs 

    !!!  WARNING: ECP capability is in beta. Please check occupations closely.  !!!


         ---------------------------------------------------------
                       SAPT(DFT): delta HF Monomer A               
         ---------------------------------------------------------
                                   SCF
               by Justin Turney, Rob Parrish, Andy Simmonett
                          and Daniel G. A. Smith
                              RHF Reference
                        4 Threads,   7629 MiB Core
         ---------------------------------------------------------

  ==> Geometry <==

    Molecular point group: c1
    Full point group: C1

    Geometry (in Angstrom), charge = 0, multiplicity = 1:

       Center              X                  Y                   Z               Mass       
    ------------   -----------------  -----------------  -----------------  -----------------
         H           -0.110393275222     0.111041948084     1.298752343834     1.007825032230
         I            0.035506724778    -0.035728051916    -0.418057656166   126.904471900000
      Gh(N)          -0.252933275222     0.254511948084     2.978022343834    14.003074004430
      Gh(H)           0.037116724778    -0.606078051916     3.424712343834     1.007825032230
      Gh(H)           0.331056724778     1.010771948084     3.311622343834     1.007825032230
      Gh(H)          -1.214413275222     0.446831948084     3.228692343834     1.007825032230

  Running in c1 symmetry.

  Rotational constants: A =      6.16453  B =      0.09091  C =      0.09091 [cm^-1]
  Rotational constants: A = 184808.10807  B =   2725.47432  C =   2725.47412 [MHz]
  Nuclear repulsion =    7.650438279290174

  Charge       = 0
  Multiplicity = 1
  Electrons    = 26
  Nalpha       = 13
  Nbeta        = 13

  ==> Algorithm <==

  SCF Algorithm Type is DF.
  DIIS enabled.
  MOM disabled.
  Fractional occupation disabled.
  Guess Type is SAD.
  Energy threshold   = 1.00e-08
  Density threshold  = 1.00e-08
  Integral threshold = 1.00e-12

  ==> Primary Basis <==

  Basis Set: THIS_BASIS
    Blend: DEF2-QZVPP
    Number of shells: 79
    Number of basis functions: 259
    Number of Cartesian functions: 316
    Spherical Harmonics?: true
    Max angular momentum: 4

  Core potential: THIS_BASIS
    Number of shells: 4
    Number of ECP primitives: 29
    Number of ECP core electrons: 28
    Max angular momentum: 3

   => Loading Basis Set <=

    Name: (THIS_BASIS AUX)
    Role: JKFIT
    Keyword: DF_BASIS_SCF
    atoms 1, 4-6 entry H          line    18 file /home/vance/anaconda3/envs/p4env/share/psi4/basis/def2-universal-jkfit.gbs 
    atoms 2      entry I          line  4980 file /home/vance/anaconda3/envs/p4env/share/psi4/basis/def2-universal-jkfit.gbs 
    atoms 3      entry N          line   258 file /home/vance/anaconda3/envs/p4env/share/psi4/basis/def2-universal-jkfit.gbs 

  ==> Integral Setup <==

  ==> DiskDFJK: Density-Fitted J/K Matrices <==

    J tasked:                  Yes
    K tasked:                  Yes
    wK tasked:                  No
    OpenMP threads:              4
    Integrals threads:           4
    Memory [MiB]:             5722
    Algorithm:                Core
    Integral Cache:           SAVE
    Schwarz Cutoff:          1E-12
    Fitting Condition:       1E-10

   => Auxiliary Basis Set <=

  Basis Set: (THIS_BASIS AUX)
    Blend: DEF2-UNIVERSAL-JKFIT
    Number of shells: 95
    Number of basis functions: 367
    Number of Cartesian functions: 482
    Spherical Harmonics?: true
    Max angular momentum: 5

  Minimum eigenvalue in the overlap matrix is 1.0745550687E-04.
  Reciprocal condition number of the overlap matrix is 1.2709444281E-05.
    Using symmetric orthogonalization.

  ==> Pre-Iterations <==

  SCF Guess: Superposition of Atomic Densities via on-the-fly atomic UHF (no occupation information).

   -------------------------
    Irrep   Nso     Nmo    
   -------------------------
     A        259     259 
   -------------------------
    Total     259     259
   -------------------------

  ==> Iterations <==

                           Total Energy        Delta E     RMS |[F,P]|

   @DF-RHF iter SAD:  -294.17295837504378   -2.94173e+02   0.00000e+00 
   @DF-RHF iter   1:  -296.91112022750673   -2.73816e+00   3.23482e-03 DIIS/ADIIS
   @DF-RHF iter   2:  -297.18399527298283   -2.72875e-01   1.89664e-03 DIIS/ADIIS
   @DF-RHF iter   3:  -297.23742456189660   -5.34293e-02   1.55729e-04 DIIS/ADIIS
   @DF-RHF iter   4:  -297.23800444676283   -5.79885e-04   7.07980e-05 DIIS
   @DF-RHF iter   5:  -297.23811943166112   -1.14985e-04   1.95097e-05 DIIS
   @DF-RHF iter   6:  -297.23814209750407   -2.26658e-05   3.70791e-06 DIIS
   @DF-RHF iter   7:  -297.23814402783592   -1.93033e-06   6.85251e-07 DIIS
   @DF-RHF iter   8:  -297.23814408194175   -5.41058e-08   1.99260e-07 DIIS
   @DF-RHF iter   9:  -297.23814408620859   -4.26684e-09   6.32401e-08 DIIS
   @DF-RHF iter  10:  -297.23814408678413   -5.75540e-10   3.61522e-08 DIIS
   @DF-RHF iter  11:  -297.23814408691862   -1.34492e-10   1.08299e-08 DIIS
   @DF-RHF iter  12:  -297.23814408694659   -2.79670e-11   1.68570e-09 DIIS
  Energy and wave function converged.


  ==> Post-Iterations <==

    Orbital Energies [Eh]
    ---------------------

    Doubly Occupied:                                                      

       1A     -7.750328     2A     -5.604378     3A     -5.595343  
       4A     -5.595343     5A     -2.300378     6A     -2.295669  
       7A     -2.295669     8A     -2.285475     9A     -2.285475  
      10A     -0.903181    11A     -0.514556    12A     -0.386740  
      13A     -0.386740  

    Virtual:                                                              

      14A      0.046514    15A      0.097876    16A      0.135640  
      17A      0.135640    18A      0.174178    19A      0.204807  
      20A      0.216939    21A      0.216939    22A      0.252117  
      23A      0.252123    24A      0.290932    25A      0.290933  
      26A      0.320008    27A      0.338500    28A      0.361342  
      29A      0.361358    30A      0.418726    31A      0.536555  
      32A      0.540146    33A      0.540157    34A      0.618849  
      35A      0.618853    36A      0.697165    37A      0.743982  
      38A      0.743990    39A      0.791898    40A      0.791900  
      41A      0.809204    42A      0.809985    43A      0.819290  
      44A      0.879439    45A      0.908450    46A      0.911088  
      47A      0.911094    48A      0.943899    49A      0.946566  
      50A      0.946567    51A      0.981884    52A      0.981885  
      53A      1.004182    54A      1.004645    55A      1.004647  
      56A      1.053266    57A      1.053295    58A      1.070591  
      59A      1.108128    60A      1.108135    61A      1.155701  
      62A      1.241753    63A      1.241763    64A      1.253138  
      65A      1.319209    66A      1.368100    67A      1.368102  
      68A      1.484965    69A      1.538271    70A      1.538273  
      71A      1.546778    72A      1.546779    73A      1.556319  
      74A      1.557701    75A      1.564957    76A      1.607359  
      77A      1.607362    78A      1.683807    79A      1.932865  
      80A      1.932866    81A      1.953891    82A      2.094812  
      83A      2.096415    84A      2.098901    85A      2.109627  
      86A      2.109630    87A      2.110046    88A      2.110047  
      89A      2.294173    90A      2.294182    91A      2.348139  
      92A      2.388575    93A      2.388583    94A      2.450225  
      95A      2.450242    96A      2.466987    97A      2.524670  
      98A      2.548660    99A      2.548667   100A      2.656599  
     101A      2.656607   102A      2.683390   103A      2.708824  
     104A      2.708825   105A      2.831033   106A      2.831041  
     107A      2.879202   108A      2.879222   109A      2.898633  
     110A      2.916749   111A      2.916750   112A      2.920362  
     113A      2.981759   114A      2.981790   115A      3.045338  
     116A      3.045405   117A      3.048621   118A      3.132454  
     119A      3.132464   120A      3.161353   121A      3.213255  
     122A      3.221164   123A      3.296855   124A      3.415833  
     125A      3.430689   126A      3.430694   127A      3.456862  
     128A      3.456874   129A      3.530757   130A      3.530783  
     131A      3.537182   132A      3.705368   133A      3.723310  
     134A      3.723311   135A      3.731324   136A      3.732042  
     137A      3.768461   138A      3.768469   139A      3.875596  
     140A      3.875601   141A      3.934465   142A      3.964934  
     143A      4.192572   144A      4.192604   145A      4.327915  
     146A      4.401668   147A      4.546099   148A      4.546118  
     149A      4.557340   150A      4.727945   151A      5.047799  
     152A      5.047811   153A      5.444859   154A      5.980112  
     155A      5.980126   156A      6.049017   157A      6.058249  
     158A      6.216422   159A      6.216446   160A      6.270074  
     161A      6.393850   162A      6.393868   163A      6.471234  
     164A      6.471238   165A      6.546726   166A      6.671414  
     167A      6.671426   168A      6.912223   169A      6.912308  
     170A      6.938898   171A      7.186106   172A      7.186139  
     173A      7.287517   174A      7.384307   175A      7.501200  
     176A      7.501259   177A      7.646877   178A      7.682219  
     179A      7.842977   180A      7.842991   181A      7.946853  
     182A      8.017426   183A      8.017443   184A      8.144245  
     185A      8.199960   186A      8.199992   187A      8.235069  
     188A      8.235072   189A      8.360375   190A      8.469928  
     191A      8.469935   192A      8.509515   193A      8.618684  
     194A      8.618689   195A      8.757127   196A      8.771674  
     197A      8.771688   198A      8.802113   199A      8.826345  
     200A      8.826358   201A      8.984594   202A      9.012372  
     203A      9.012384   204A      9.120634   205A      9.200539  
     206A      9.257329   207A      9.257351   208A      9.376094  
     209A      9.376098   210A      9.390918   211A      9.482797  
     212A      9.691871   213A      9.762459   214A      9.762490  
     215A      9.858253   216A     10.046120   217A     10.084403  
     218A     10.084421   219A     10.296647   220A     10.296673  
     221A     10.328389   222A     10.712704   223A     10.712722  
     224A     11.061120   225A     11.061140   226A     11.200869  
     227A     11.815500   228A     11.815525   229A     11.905243  
     230A     12.257169   231A     12.257169   232A     12.260810  
     233A     12.260888   234A     12.355642   235A     12.355672  
     236A     12.375297   237A     12.375303   238A     12.650445  
     239A     12.764010   240A     13.683785   241A     13.879316  
     242A     13.879335   243A     14.193694   244A     14.289114  
     245A     14.289145   246A     14.581560   247A     14.581573  
     248A     14.637437   249A     14.834564   250A     16.110198  
     251A     18.285623   252A     18.285654   253A     25.557446  
     254A     40.339318   255A     40.339318   256A     40.473917  
     257A     70.330381   258A     79.131053   259A    318.714667  

    Final Occupation by Irrep:
              A 
    DOCC [    13 ]
    NA   [    13 ]
    NB   [    13 ]

  @DF-RHF Final Energy:  -297.23814408694659

   => Energetics <=

    Nuclear Repulsion Energy =              7.6504382792901735
    One-Electron Energy =                -533.3786141435338095
    Two-Electron Energy =                 228.4900317772970766
    Total Energy =                       -297.2381440869465905

Computation Completed


Properties will be evaluated at   0.000000,   0.000000,   0.000000 [a0]

Properties computed using the SCF density matrix


 Multipole Moments:

 ------------------------------------------------------------------------------------
     Multipole            Electronic (a.u.)      Nuclear  (a.u.)        Total (a.u.)
 ------------------------------------------------------------------------------------

 L = 1.  Multiply by 2.5417464519 to convert [e a0] to [Debye]
 Dipole X            :         -1.4864891            1.4688366           -0.0176525
 Dipole Y            :          1.4958246           -1.4780670            0.0177577
 Dipole Z            :         17.5037899          -17.2960756            0.2077143
 Magnitude           :                                                    0.2092180

 ------------------------------------------------------------------------------------

*** tstop() called on cmpsrv002 at Thu Sep 19 13:58:07 2024
Module time:
	user time   =      16.57 seconds =       0.28 minutes
	system time =       2.05 seconds =       0.03 minutes
	total time  =         21 seconds =       0.35 minutes
Total time:
	user time   =      31.92 seconds =       0.53 minutes
	system time =       4.13 seconds =       0.07 minutes
	total time  =         42 seconds =       0.70 minutes
   => Libint2 <=

    Primary   basis highest AM E, G, H:  6, 6, 3
    Auxiliary basis highest AM E, G, H:  7, 7, 4
    Onebody   basis highest AM E, G, H:  -, -, -
    Solid Harmonics ordering:            Gaussian

*** tstart() called on cmpsrv002
*** at Thu Sep 19 13:58:08 2024

   => Loading Basis Set <=

    Name: THIS_BASIS
    Role: ORBITAL
    Keyword: BASIS
    atoms 1, 4-6 entry H          line    15 file /home/vance/anaconda3/envs/p4env/share/psi4/basis/def2-qzvpp.gbs 
    atoms 2      entry I          line  3401 (ECP: line  4988) file /home/vance/anaconda3/envs/p4env/share/psi4/basis/def2-qzvpp.gbs 
    atoms 3      entry N          line   242 file /home/vance/anaconda3/envs/p4env/share/psi4/basis/def2-qzvpp.gbs 

    !!!  WARNING: ECP capability is in beta. Please check occupations closely.  !!!


         ---------------------------------------------------------
                       SAPT(DFT): delta HF Monomer B               
         ---------------------------------------------------------
                                   SCF
               by Justin Turney, Rob Parrish, Andy Simmonett
                          and Daniel G. A. Smith
                              RHF Reference
                        4 Threads,   7629 MiB Core
         ---------------------------------------------------------

  ==> Geometry <==

    Molecular point group: c1
    Full point group: C1

    Geometry (in Angstrom), charge = 0, multiplicity = 1:

       Center              X                  Y                   Z               Mass       
    ------------   -----------------  -----------------  -----------------  -----------------
      Gh(H)          -0.110393275222     0.111041948084     1.298752343834     1.007825032230
      Gh(I)           0.035506724778    -0.035728051916    -0.418057656166   126.904471900000
         N           -0.252933275222     0.254511948084     2.978022343834    14.003074004430
         H            0.037116724778    -0.606078051916     3.424712343834     1.007825032230
         H            0.331056724778     1.010771948084     3.311622343834     1.007825032230
         H           -1.214413275222     0.446831948084     3.228692343834     1.007825032230

  Running in c1 symmetry.

  Rotational constants: A =      6.16453  B =      0.09091  C =      0.09091 [cm^-1]
  Rotational constants: A = 184808.10807  B =   2725.47432  C =   2725.47412 [MHz]
  Nuclear repulsion =   11.944039389132863

  Charge       = 0
  Multiplicity = 1
  Electrons    = 10
  Nalpha       = 5
  Nbeta        = 5

  ==> Algorithm <==

  SCF Algorithm Type is DF.
  DIIS enabled.
  MOM disabled.
  Fractional occupation disabled.
  Guess Type is SAD.
  Energy threshold   = 1.00e-08
  Density threshold  = 1.00e-08
  Integral threshold = 1.00e-12

  ==> Primary Basis <==

  Basis Set: THIS_BASIS
    Blend: DEF2-QZVPP
    Number of shells: 79
    Number of basis functions: 259
    Number of Cartesian functions: 316
    Spherical Harmonics?: true
    Max angular momentum: 4

  Core potential: THIS_BASIS
    Number of shells: 4
    Number of ECP primitives: 29
    Number of ECP core electrons: 0
    Max angular momentum: 3

   => Loading Basis Set <=

    Name: (THIS_BASIS AUX)
    Role: JKFIT
    Keyword: DF_BASIS_SCF
    atoms 1, 4-6 entry H          line    18 file /home/vance/anaconda3/envs/p4env/share/psi4/basis/def2-universal-jkfit.gbs 
    atoms 2      entry I          line  4980 file /home/vance/anaconda3/envs/p4env/share/psi4/basis/def2-universal-jkfit.gbs 
    atoms 3      entry N          line   258 file /home/vance/anaconda3/envs/p4env/share/psi4/basis/def2-universal-jkfit.gbs 

  ==> Integral Setup <==

  ==> DiskDFJK: Density-Fitted J/K Matrices <==

    J tasked:                  Yes
    K tasked:                  Yes
    wK tasked:                  No
    OpenMP threads:              4
    Integrals threads:           4
    Memory [MiB]:             5722
    Algorithm:                Core
    Integral Cache:           SAVE
    Schwarz Cutoff:          1E-12
    Fitting Condition:       1E-10

   => Auxiliary Basis Set <=

  Basis Set: (THIS_BASIS AUX)
    Blend: DEF2-UNIVERSAL-JKFIT
    Number of shells: 95
    Number of basis functions: 367
    Number of Cartesian functions: 482
    Spherical Harmonics?: true
    Max angular momentum: 5

  Minimum eigenvalue in the overlap matrix is 1.0745550687E-04.
  Reciprocal condition number of the overlap matrix is 1.2709444281E-05.
    Using symmetric orthogonalization.

  ==> Pre-Iterations <==

  SCF Guess: Superposition of Atomic Densities via on-the-fly atomic UHF (no occupation information).

   -------------------------
    Irrep   Nso     Nmo    
   -------------------------
     A        259     259 
   -------------------------
    Total     259     259
   -------------------------

  ==> Iterations <==

                           Total Energy        Delta E     RMS |[F,P]|

   @DF-RHF iter SAD:   -55.65025381622949   -5.56503e+01   0.00000e+00 
   @DF-RHF iter   1:   -56.13001410906963   -4.79760e-01   1.77359e-03 DIIS/ADIIS
   @DF-RHF iter   2:   -56.19689135199521   -6.68772e-02   1.02229e-03 DIIS/ADIIS
   @DF-RHF iter   3:   -56.22373446722602   -2.68431e-02   9.46839e-05 DIIS
   @DF-RHF iter   4:   -56.22436088702777   -6.26420e-04   1.75526e-05 DIIS
   @DF-RHF iter   5:   -56.22438125730864   -2.03703e-05   3.26983e-06 DIIS
   @DF-RHF iter   6:   -56.22438246403559   -1.20673e-06   8.45039e-07 DIIS
   @DF-RHF iter   7:   -56.22438254925756   -8.52220e-08   1.87570e-07 DIIS
   @DF-RHF iter   8:   -56.22438255377470   -4.51715e-09   2.98303e-08 DIIS
   @DF-RHF iter   9:   -56.22438255388811   -1.13403e-10   8.39420e-09 DIIS
  Energy and wave function converged.


  ==> Post-Iterations <==

    Orbital Energies [Eh]
    ---------------------

    Doubly Occupied:                                                      

       1A    -15.538050     2A     -1.137948     3A     -0.631740  
       4A     -0.631736     5A     -0.422824  

    Virtual:                                                              

       6A      0.093538     7A      0.110155     8A      0.139781  
       9A      0.139782    10A      0.169120    11A      0.169122  
      12A      0.183728    13A      0.311885    14A      0.311886  
      15A      0.316985    16A      0.345876    17A      0.425907  
      18A      0.425909    19A      0.434558    20A      0.449689  
      21A      0.449706    22A      0.499799    23A      0.510246  
      24A      0.510247    25A      0.528269    26A      0.528270  
      27A      0.531143    28A      0.582468    29A      0.582475  
      30A      0.651088    31A      0.718896    32A      0.867553  
      33A      0.872441    34A      0.890677    35A      0.890702  
      36A      0.916851    37A      0.916854    38A      0.995269  
      39A      1.037332    40A      1.037337    41A      1.053259  
      42A      1.053575    43A      1.083956    44A      1.083969  
      45A      1.105415    46A      1.105430    47A      1.184246  
      48A      1.209011    49A      1.244720    50A      1.244728  
      51A      1.314584    52A      1.323872    53A      1.338930  
      54A      1.338933    55A      1.357726    56A      1.357730  
      57A      1.366513    58A      1.393452    59A      1.393463  
      60A      1.405628    61A      1.405629    62A      1.422634  
      63A      1.571687    64A      1.571711    65A      1.581524  
      66A      1.793271    67A      1.931125    68A      1.931148  
      69A      1.967329    70A      2.154498    71A      2.232232  
      72A      2.232250    73A      2.309873    74A      2.309886  
      75A      2.341149    76A      2.394903    77A      2.468970  
      78A      2.468975    79A      2.546812    80A      2.546819  
      81A      2.597123    82A      2.597127    83A      2.623520  
      84A      2.623520    85A      2.624234    86A      2.624567  
      87A      2.633635    88A      2.633652    89A      2.661529  
      90A      2.747969    91A      2.752676    92A      2.752702  
      93A      2.807864    94A      2.896506    95A      2.896534  
      96A      2.902625    97A      2.931898    98A      2.931920  
      99A      3.033536   100A      3.143504   101A      3.143523  
     102A      3.163670   103A      3.163685   104A      3.177612  
     105A      3.178350   106A      3.184939   107A      3.184940  
     108A      3.194693   109A      3.215795   110A      3.215830  
     111A      3.223297   112A      3.243679   113A      3.243686  
     114A      3.263645   115A      3.342408   116A      3.409906  
     117A      3.409908   118A      3.466482   119A      3.501009  
     120A      3.501018   121A      3.529114   122A      3.529117  
     123A      3.536341   124A      3.629945   125A      3.629948  
     126A      3.683534   127A      3.943227   128A      3.968587  
     129A      3.968609   130A      4.058506   131A      4.088713  
     132A      4.088768   133A      4.203312   134A      4.387382  
     135A      4.387410   136A      4.525772   137A      4.639475  
     138A      4.658370   139A      4.658372   140A      4.707485  
     141A      5.397699   142A      5.462174   143A      5.462193  
     144A      6.156017   145A      6.156021   146A      6.264095  
     147A      6.264101   148A      6.320412   149A      6.361769  
     150A      6.371395   151A      6.379619   152A      6.379632  
     153A      6.411478   154A      6.580084   155A      6.580106  
     156A      6.780558   157A      6.861364   158A      6.861426  
     159A      6.944051   160A      7.023424   161A      7.023440  
     162A      7.261098   163A      7.319790   164A      7.360378  
     165A      7.360401   166A      7.542485   167A      7.542495  
     168A      7.625196   169A      7.625199   170A      7.665180  
     171A      7.697945   172A      7.697953   173A      7.899700  
     174A      8.009909   175A      8.009931   176A      8.047270  
     177A      8.116809   178A      8.148019   179A      8.148032  
     180A      8.304178   181A      8.305850   182A      8.378623  
     183A      8.378646   184A      8.522472   185A      8.549920  
     186A      8.549975   187A      8.584897   188A      8.654715  
     189A      8.690354   190A      8.735782   191A      8.735785  
     192A      8.890227   193A      8.890246   194A      8.953068  
     195A      8.953074   196A      9.007974   197A      9.017358  
     198A      9.017372   199A      9.186676   200A      9.186721  
     201A      9.196300   202A      9.508108   203A      9.508130  
     204A      9.611148   205A      9.615584   206A      9.615589  
     207A     10.021738   208A     10.021757   209A     10.027323  
     210A     10.107671   211A     10.157656   212A     10.157665  
     213A     10.208204   214A     10.316620   215A     10.544365  
     216A     10.544372   217A     10.594108   218A     10.594154  
     219A     10.601222   220A     10.601223   221A     10.668913  
     222A     10.782420   223A     10.782420   224A     10.841137  
     225A     11.291324   226A     11.657332   227A     11.718730  
     228A     11.718732   229A     12.151015   230A     12.151035  
     231A     12.154845   232A     12.335847   233A     12.335896  
     234A     12.469092   235A     13.854916   236A     13.854916  
     237A     14.522212   238A     14.691435   239A     14.691435  
     240A     14.763497   241A     14.763508   242A     14.884131  
     243A     14.884153   244A     15.403107   245A     15.748464  
     246A     32.652703   247A     32.652753   248A     32.655151  
     249A     32.655151   250A     32.717517   251A     32.717518  
     252A     32.875540   253A     36.364141   254A     39.479965  
     255A     91.298243   256A     91.298243   257A     91.373450  
     258A    168.101343   259A    200.609188  

    Final Occupation by Irrep:
              A 
    DOCC [     5 ]
    NA   [     5 ]
    NB   [     5 ]

  @DF-RHF Final Energy:   -56.22438255388811

   => Energetics <=

    Nuclear Repulsion Energy =             11.9440393891328629
    One-Electron Energy =                 -99.6122469486032003
    Two-Electron Energy =                  31.4438250055822301
    Total Energy =                        -56.2243825538881055

Computation Completed


Properties will be evaluated at   0.000000,   0.000000,   0.000000 [a0]

Properties computed using the SCF density matrix


 Multipole Moments:

 ------------------------------------------------------------------------------------
     Multipole            Electronic (a.u.)      Nuclear  (a.u.)        Total (a.u.)
 ------------------------------------------------------------------------------------

 L = 1.  Multiply by 2.5417464519 to convert [e a0] to [Debye]
 Dipole X            :          4.8948153           -4.9449838           -0.0501686
 Dipole Y            :         -4.9253652            4.9758558            0.0504905
 Dipole Z            :        -57.6331684           58.2246983            0.5915299
 Magnitude           :                                                    0.5957968

 ------------------------------------------------------------------------------------

*** tstop() called on cmpsrv002 at Thu Sep 19 13:58:27 2024
Module time:
	user time   =      14.65 seconds =       0.24 minutes
	system time =       1.73 seconds =       0.03 minutes
	total time  =         19 seconds =       0.32 minutes
Total time:
	user time   =      46.59 seconds =       0.78 minutes
	system time =       5.88 seconds =       0.10 minutes
	total time  =         62 seconds =       1.03 minutes

         ---------------------------------------------------------
                        SAPT(DFT): delta HF Segment                

                   by Daniel G. A. Smith and Rob Parrish           
         ---------------------------------------------------------


  ==> Preparing SAPT Data Cache <== 

  ==> DiskDFJK: Density-Fitted J/K Matrices <==

    J tasked:                  Yes
    K tasked:                  Yes
    wK tasked:                  No
    OpenMP threads:              4
    Integrals threads:           4
    Memory [MiB]:             5722
    Algorithm:                Core
    Integral Cache:           SAVE
    Schwarz Cutoff:          1E-12
    Fitting Condition:       1E-10

   => Auxiliary Basis Set <=

  Basis Set: (THIS_BASIS AUX)
    Blend: DEF2-UNIVERSAL-JKFIT
    Number of shells: 95
    Number of basis functions: 367
    Number of Cartesian functions: 482
    Spherical Harmonics?: true
    Max angular momentum: 5


  ==> E10 Electostatics <== 

    Elst10,r                        -36.45841412 [mEh]

  ==> E10 Exchange <== 

    Exch10(S^2)                      58.27271408 [mEh]
    Exch10                           61.27028275 [mEh]

  ==> E20 Induction <== 

   => Uncoupled Induction <= 

    Ind20,u (A<-B)                  -12.24971314 [mEh]
    Ind20,u (A->B)                   -9.43115004 [mEh]
    Ind20,u                         -21.68086318 [mEh]
    Exch-Ind20,u (A<-B)               8.45937899 [mEh]
    Exch-Ind20,u (A->B)               2.82576708 [mEh]
    Exch-Ind20,u                     11.28514607 [mEh]
    Exch-Ind20,u (A<-B) (S^inf)       9.39567693 [mEh]
    Exch-Ind20,u (A->B) (S^inf)       3.55311761 [mEh]
    Exch-Ind20,u (S^inf)             12.94879453 [mEh]

   => Coupled Induction <= 

   ---------------------------------------------------
              SAPT Coupled Induction Solver           
   ---------------------------------------------------
    Maxiter             =          20
    Convergence         =   1.000E-06
   ---------------------------------------------------
     Iter       (A<-B)           (B->A)      Time [s]
   ---------------------------------------------------
    Guess    1.455788e-01     1.924013e-01          1
        1    7.142498e-02     4.699559e-02          2
        2    9.055048e-03     1.186741e-02          3
        3    1.958585e-03     4.019890e-03          5
        4    3.434488e-04     8.788722e-04          6
        5    1.373686e-04     1.519953e-04          7
        6    2.079720e-05     2.136908e-05          8
        7    4.148054e-06     4.147671e-06          9
        8    6.368140e-07*    7.187798e-07*        11
   ---------------------------------------------------

    Ind20,r (A<-B)                  -14.16500225 [mEh]
    Ind20,r (A->B)                  -12.26592851 [mEh]
    Ind20,r                         -26.43093075 [mEh]
    Exch-Ind20,r (A<-B)              10.29459393 [mEh]
    Exch-Ind20,r (A->B)               4.34917771 [mEh]
    Exch-Ind20,r                     14.64377164 [mEh]
    Exch-Ind20,r (A<-B) (S^inf)      11.45936565 [mEh]
    Exch-Ind20,r (A->B) (S^inf)       5.42782307 [mEh]
    Exch-Ind20,r (S^inf)             16.88718872 [mEh]

   Partial SAPT(HF) Results, to compute Delta HF (dHF)
  ---------------------------------------------------------------------------------------------------------
    Electrostatics                  -36.45841412 [mEh]    -22.87800026 [kcal/mol]    -95.72155309 [kJ/mol]
      Elst10,r                      -36.45841412 [mEh]    -22.87800026 [kcal/mol]    -95.72155309 [kJ/mol]

    Exchange                         61.27028275 [mEh]     38.44768289 [kcal/mol]    160.86510520 [kJ/mol]
      Exch10                         61.27028275 [mEh]     38.44768289 [kcal/mol]    160.86510520 [kJ/mol]
      Exch10(S^2)                    58.27271408 [mEh]     36.56668015 [kcal/mol]    152.99498973 [kJ/mol]

    Induction (no dHF)              -11.78715912 [mEh]     -7.39655401 [kcal/mol]    -30.94718200 [kJ/mol]
      Ind20,r                       -26.43093075 [mEh]    -16.58565945 [kcal/mol]    -69.39439913 [kJ/mol]
      Exch-Ind20,r                   14.64377164 [mEh]      9.18910543 [kcal/mol]     38.44721713 [kJ/mol]
      Induction (A<-B) (no dHF)      -3.87040832 [mEh]     -2.42871789 [kcal/mol]    -10.16175563 [kJ/mol]
      Induction (A->B) (no dHF)      -7.91675080 [mEh]     -4.96783613 [kcal/mol]    -20.78542636 [kJ/mol]

    Subtotal SAPT(HF)                13.02470951 [mEh]      8.17312861 [kcal/mol]     34.19637012 [kJ/mol]
    Total HF                         -4.73710220 [mEh]     -2.97257651 [kcal/mol]    -12.43726010 [kJ/mol]
    Delta HF                        -17.76181171 [mEh]    -11.14570512 [kcal/mol]    -46.63363022 [kJ/mol]
  ---------------------------------------------------------------------------------------------------------
   Partial SAPT(HF) Results, alternate SAPT0-like display
  ---------------------------------------------------------------------------------------------------------
    Induction                       -29.54897083 [mEh]    -18.54225913 [kcal/mol]    -77.58081221 [kJ/mol]
      Ind20,r                       -26.43093075 [mEh]    -16.58565945 [kcal/mol]    -69.39439913 [kJ/mol]
      Exch-Ind20,r                   14.64377164 [mEh]      9.18910543 [kcal/mol]     38.44721713 [kJ/mol]
      delta HF,r (2)                -17.76181171 [mEh]    -11.14570512 [kcal/mol]    -46.63363022 [kJ/mol]
      Induction (A<-B)               -9.70264177 [mEh]     -6.08849963 [kcal/mol]    -25.47428246 [kJ/mol]
      Induction (A->B)              -19.84632905 [mEh]    -12.45375950 [kcal/mol]    -52.10652975 [kJ/mol]
  ---------------------------------------------------------------------------------------------------------
   => Libint2 <=

    Primary   basis highest AM E, G, H:  6, 6, 3
    Auxiliary basis highest AM E, G, H:  7, 7, 4
    Onebody   basis highest AM E, G, H:  -, -, -
    Solid Harmonics ordering:            Gaussian

*** tstart() called on cmpsrv002
*** at Thu Sep 19 13:58:51 2024

   => Loading Basis Set <=

    Name: THIS_BASIS
    Role: ORBITAL
    Keyword: BASIS
    atoms 1, 4-6 entry H          line    15 file /home/vance/anaconda3/envs/p4env/share/psi4/basis/def2-qzvpp.gbs 
    atoms 2      entry I          line  3401 (ECP: line  4988) file /home/vance/anaconda3/envs/p4env/share/psi4/basis/def2-qzvpp.gbs 
    atoms 3      entry N          line   242 file /home/vance/anaconda3/envs/p4env/share/psi4/basis/def2-qzvpp.gbs 

    !!!  WARNING: ECP capability is in beta. Please check occupations closely.  !!!


         ---------------------------------------------------------
                          SAPT(DFT): DFT Monomer A                 
         ---------------------------------------------------------
                                   SCF
               by Justin Turney, Rob Parrish, Andy Simmonett
                          and Daniel G. A. Smith
                              RKS Reference
                        4 Threads,   7629 MiB Core
         ---------------------------------------------------------

  ==> Geometry <==

    Molecular point group: c1
    Full point group: C1

    Geometry (in Angstrom), charge = 0, multiplicity = 1:

       Center              X                  Y                   Z               Mass       
    ------------   -----------------  -----------------  -----------------  -----------------
         H           -0.110393275222     0.111041948084     1.298752343834     1.007825032230
         I            0.035506724778    -0.035728051916    -0.418057656166   126.904471900000
      Gh(N)          -0.252933275222     0.254511948084     2.978022343834    14.003074004430
      Gh(H)           0.037116724778    -0.606078051916     3.424712343834     1.007825032230
      Gh(H)           0.331056724778     1.010771948084     3.311622343834     1.007825032230
      Gh(H)          -1.214413275222     0.446831948084     3.228692343834     1.007825032230

  Running in c1 symmetry.

  Rotational constants: A =      6.16453  B =      0.09091  C =      0.09091 [cm^-1]
  Rotational constants: A = 184808.10807  B =   2725.47432  C =   2725.47412 [MHz]
  Nuclear repulsion =    7.650438279290174

  Charge       = 0
  Multiplicity = 1
  Electrons    = 26
  Nalpha       = 13
  Nbeta        = 13

  ==> Algorithm <==

  SCF Algorithm Type is DF.
  DIIS enabled.
  MOM disabled.
  Fractional occupation disabled.
  Guess Type is SAD.
  Energy threshold   = 1.00e-08
  Density threshold  = 1.00e-08
  Integral threshold = 1.00e-12

  ==> Primary Basis <==

  Basis Set: THIS_BASIS
    Blend: DEF2-QZVPP
    Number of shells: 79
    Number of basis functions: 259
    Number of Cartesian functions: 316
    Spherical Harmonics?: true
    Max angular momentum: 4

  Core potential: THIS_BASIS
    Number of shells: 4
    Number of ECP primitives: 29
    Number of ECP core electrons: 28
    Max angular momentum: 3

  ==> DFT Potential <==

   => LibXC <=

    Version 6.2.2
    S. Lehtola, C. Steigemann, M. J.T. Oliveira, and M. A.L. Marques.,  SoftwareX 7, 15 (2018) (10.1016/j.softx.2017.11.002)

   => Composite Functional: PBE0 <= 

    PBE0 Hyb-GGA Exchange-Correlation Functional

    C. Adamo and V. Barone.,  J. Chem. Phys. 110, 6158 (1999) (10.1063/1.478522)
    M. Ernzerhof and G. E. Scuseria.,  J. Chem. Phys. 110, 5029 (1999) (10.1063/1.478401)

    Deriv               =              1
    GGA                 =           TRUE
    Meta                =          FALSE

    Exchange Hybrid     =           TRUE
    MP2 Hybrid          =          FALSE

   => Exchange Functionals <=

    0.7500   Perdew, Burke & Ernzerhof

   => Exact (HF) Exchange <=

    0.2500               HF 

   => Correlation Functionals <=

    1.0000   Perdew, Burke & Ernzerhof

   => LibXC Density Thresholds  <==

    XC_HYB_GGA_XC_PBEH:  1.00E-15 

   => Asymptotic Correction <=

    X Functional        =    XC_GGA_X_LB
    C Functional        =   XC_LDA_C_VWN
    Bulk Shift          =       0.094577
    GRAC Alpha          =       0.500000
    GRAC Beta           =      40.000000

   => Molecular Quadrature <=

    Radial Scheme          =       TREUTLER
    Pruning Scheme         =           NONE
    Nuclear Scheme         =       TREUTLER

    Blocking Scheme        =         OCTREE
    BS radius alpha        =              1
    Pruning alpha          =              1
    Radial Points          =             75
    Spherical Points       =            302
    Total Points           =         130294
    Total Blocks           =           1039
    Max Points             =            256
    Max Functions          =            250
    Weights Tolerance      =       1.00E-15

   => Loading Basis Set <=

    Name: (THIS_BASIS AUX)
    Role: JKFIT
    Keyword: DF_BASIS_SCF
    atoms 1, 4-6 entry H          line    18 file /home/vance/anaconda3/envs/p4env/share/psi4/basis/def2-universal-jkfit.gbs 
    atoms 2      entry I          line  4980 file /home/vance/anaconda3/envs/p4env/share/psi4/basis/def2-universal-jkfit.gbs 
    atoms 3      entry N          line   258 file /home/vance/anaconda3/envs/p4env/share/psi4/basis/def2-universal-jkfit.gbs 

  ==> Integral Setup <==

  ==> DiskDFJK: Density-Fitted J/K Matrices <==

    J tasked:                  Yes
    K tasked:                  Yes
    wK tasked:                  No
    OpenMP threads:              4
    Integrals threads:           4
    Memory [MiB]:             4945
    Algorithm:                Core
    Integral Cache:           SAVE
    Schwarz Cutoff:          1E-12
    Fitting Condition:       1E-10

   => Auxiliary Basis Set <=

  Basis Set: (THIS_BASIS AUX)
    Blend: DEF2-UNIVERSAL-JKFIT
    Number of shells: 95
    Number of basis functions: 367
    Number of Cartesian functions: 482
    Spherical Harmonics?: true
    Max angular momentum: 5

  Cached 100.0% of DFT collocation blocks in 0.758 [GiB].

  Minimum eigenvalue in the overlap matrix is 1.0745550687E-04.
  Reciprocal condition number of the overlap matrix is 1.2709444281E-05.
    Using symmetric orthogonalization.

  ==> Pre-Iterations <==

  SCF Guess: Superposition of Atomic Densities via on-the-fly atomic UHF (no occupation information).

   -------------------------
    Irrep   Nso     Nmo    
   -------------------------
     A        259     259 
   -------------------------
    Total     259     259
   -------------------------

  ==> Iterations <==

                           Total Energy        Delta E     RMS |[F,P]|

   @DF-RKS iter SAD:  -295.72881780778965   -2.95729e+02   0.00000e+00 
   @DF-RKS iter   1:  -297.77289156665017   -2.04407e+00   4.31462e-03 DIIS/ADIIS
   @DF-RKS iter   2:  -297.76216013839434    1.07314e-02   4.74362e-03 DIIS/ADIIS
   @DF-RKS iter   3:  -298.30814887542914   -5.45989e-01   5.26703e-04 DIIS/ADIIS
   @DF-RKS iter   4:  -298.31049321648214   -2.34434e-03   4.77529e-04 DIIS/ADIIS
   @DF-RKS iter   5:  -298.31509879131488   -4.60557e-03   2.67396e-05 DIIS
   @DF-RKS iter   6:  -298.31512762069900   -2.88294e-05   8.94054e-06 DIIS
   @DF-RKS iter   7:  -298.31513117074843   -3.55005e-06   4.12905e-07 DIIS
   @DF-RKS iter   8:  -298.31513111329798    5.74504e-08   8.30745e-08 DIIS
   @DF-RKS iter   9:  -298.31513111759062   -4.29264e-09   4.60280e-08 DIIS
   @DF-RKS iter  10:  -298.31513111787251   -2.81887e-10   7.86954e-09 DIIS
  Energy and wave function converged.


  ==> Post-Iterations <==

   Electrons on quadrature grid:
      Ntotal   =   26.0000007969 ; deviation = 7.969e-07 

    Orbital Energies [Eh]
    ---------------------

    Doubly Occupied:                                                      

       1A     -7.006246     2A     -5.021198     3A     -5.009449  
       4A     -5.009449     5A     -2.048226     6A     -2.044190  
       7A     -2.044190     8A     -2.034072     9A     -2.034072  
      10A     -0.817465    11A     -0.505692    12A     -0.385870  
      13A     -0.385870  

    Virtual:                                                              

      14A     -0.150830    15A     -0.035542    16A     -0.005192  
      17A      0.006705    18A      0.006707    19A      0.045839  
      20A      0.045840    21A      0.053341    22A      0.078056  
      23A      0.078059    24A      0.095333    25A      0.095340  
      26A      0.173776    27A      0.182446    28A      0.210132  
      29A      0.210136    30A      0.259803    31A      0.356352  
      32A      0.405609    33A      0.405631    34A      0.423068  
      35A      0.423069    36A      0.504852    37A      0.504854  
      38A      0.517348    39A      0.518515    40A      0.521816  
      41A      0.555742    42A      0.555745    43A      0.589402  
      44A      0.636390    45A      0.680806    46A      0.680808  
      47A      0.697285    48A      0.697288    49A      0.707617  
      50A      0.707621    51A      0.738261    52A      0.784274  
      53A      0.784283    54A      0.797861    55A      0.827293  
      56A      0.859818    57A      0.859845    58A      0.868800  
      59A      0.902728    60A      0.970139    61A      0.970172  
      62A      1.029012    63A      1.070746    64A      1.070753  
      65A      1.134872    66A      1.162572    67A      1.162575  
      68A      1.168012    69A      1.168013    70A      1.185212  
      71A      1.185216    72A      1.241041    73A      1.241044  
      74A      1.270122    75A      1.344022    76A      1.393745  
      77A      1.393750    78A      1.412771    79A      1.600647  
      80A      1.600648    81A      1.718449    82A      1.733930  
      83A      1.734399    84A      1.744778    85A      1.744778  
      86A      1.854064    87A      1.854068    88A      1.932503  
      89A      2.018470    90A      2.043782    91A      2.043787  
      92A      2.152099    93A      2.152125    94A      2.226276  
      95A      2.226278    96A      2.301452    97A      2.343739  
      98A      2.388595    99A      2.388604   100A      2.417021  
     101A      2.417032   102A      2.469051   103A      2.469078  
     104A      2.491684   105A      2.491689   106A      2.552198  
     107A      2.595821   108A      2.595854   109A      2.600308  
     110A      2.684255   111A      2.684263   112A      2.723029  
     113A      2.750692   114A      2.764422   115A      2.764426  
     116A      2.838687   117A      2.838699   118A      2.875309  
     119A      2.875372   120A      2.882040   121A      2.890145  
     122A      2.961713   123A      2.993634   124A      2.993636  
     125A      3.083141   126A      3.166820   127A      3.166822  
     128A      3.172349   129A      3.172791   130A      3.207819  
     131A      3.207854   132A      3.292711   133A      3.308289  
     134A      3.311268   135A      3.311284   136A      3.373564  
     137A      3.552231   138A      3.552238   139A      3.587119  
     140A      3.613378   141A      3.613389   142A      3.737128  
     143A      3.942233   144A      3.942263   145A      4.144620  
     146A      4.243138   147A      4.273920   148A      4.392282  
     149A      4.392299   150A      4.456152   151A      4.903902  
     152A      4.903916   153A      5.277563   154A      5.662629  
     155A      5.672408   156A      5.780339   157A      5.780361  
     158A      5.900765   159A      5.900781   160A      5.913132  
     161A      6.138566   162A      6.138594   163A      6.334633  
     164A      6.334636   165A      6.414939   166A      6.468136  
     167A      6.468170   168A      6.678208   169A      6.710566  
     170A      6.710623   171A      6.936736   172A      7.044275  
     173A      7.044306   174A      7.247995   175A      7.317711  
     176A      7.317741   177A      7.515755   178A      7.529054  
     179A      7.591390   180A      7.591392   181A      7.716069  
     182A      7.716120   183A      7.812358   184A      7.836646  
     185A      7.836800   186A      7.990748   187A      8.039030  
     188A      8.039044   189A      8.083928   190A      8.296739  
     191A      8.296764   192A      8.319138   193A      8.454142  
     194A      8.454151   195A      8.487561   196A      8.487611  
     197A      8.606573   198A      8.647262   199A      8.647275  
     200A      8.662050   201A      8.846099   202A      8.875238  
     203A      8.875252   204A      8.912589   205A      9.050503  
     206A      9.081061   207A      9.090431   208A      9.090464  
     209A      9.221429   210A      9.221435   211A      9.345144  
     212A      9.442425   213A      9.612812   214A      9.612839  
     215A      9.682553   216A      9.861950   217A      9.928053  
     218A      9.928070   219A     10.143776   220A     10.143798  
     221A     10.162213   222A     10.556840   223A     10.556860  
     224A     10.902256   225A     10.902274   226A     11.043690  
     227A     11.329233   228A     11.329234   229A     11.331832  
     230A     11.331924   231A     11.442590   232A     11.442591  
     233A     11.629627   234A     11.671610   235A     11.671636  
     236A     11.830859   237A     12.207425   238A     12.207463  
     239A     12.616312   240A     13.534423   241A     13.725847  
     242A     13.725868   243A     14.038944   244A     14.076317  
     245A     14.130410   246A     14.130442   247A     14.427573  
     248A     14.427587   249A     14.479654   250A     15.958347  
     251A     18.133066   252A     18.133095   253A     25.394554  
     254A     39.530881   255A     39.530881   256A     39.667210  
     257A     70.165872   258A     78.414686   259A    318.551699  

    Final Occupation by Irrep:
              A 
    DOCC [    13 ]
    NA   [    13 ]
    NB   [    13 ]

  @DF-RKS Final Energy:  -298.31513111787251

   => Energetics <=

    Nuclear Repulsion Energy =              7.6504382792901735
    One-Electron Energy =                -533.7188942595879553
    Two-Electron Energy =                 244.9373974843051087
    DFT Exchange-Correlation Energy =     -17.1840726218798672
    Empirical Dispersion Energy =           0.0000000000000000
    VV10 Nonlocal Energy =                  0.0000000000000000
    Total Energy =                       -298.3151311178725678

Computation Completed


Properties will be evaluated at   0.000000,   0.000000,   0.000000 [a0]

Properties computed using the SCF density matrix


 Multipole Moments:

 ------------------------------------------------------------------------------------
     Multipole            Electronic (a.u.)      Nuclear  (a.u.)        Total (a.u.)
 ------------------------------------------------------------------------------------

 L = 1.  Multiply by 2.5417464519 to convert [e a0] to [Debye]
 Dipole X            :         -1.4845229            1.4688366           -0.0156863
 Dipole Y            :          1.4938447           -1.4780670            0.0157778
 Dipole Z            :         17.4806407          -17.2960756            0.1845651
 Magnitude           :                                                    0.1859013

 ------------------------------------------------------------------------------------

*** tstop() called on cmpsrv002 at Thu Sep 19 13:59:45 2024
Module time:
	user time   =      45.87 seconds =       0.76 minutes
	system time =       2.70 seconds =       0.04 minutes
	total time  =         54 seconds =       0.90 minutes
Total time:
	user time   =     113.82 seconds =       1.90 minutes
	system time =       9.29 seconds =       0.15 minutes
	total time  =        140 seconds =       2.33 minutes
   => Libint2 <=

    Primary   basis highest AM E, G, H:  6, 6, 3
    Auxiliary basis highest AM E, G, H:  7, 7, 4
    Onebody   basis highest AM E, G, H:  -, -, -
    Solid Harmonics ordering:            Gaussian

*** tstart() called on cmpsrv002
*** at Thu Sep 19 13:59:45 2024

   => Loading Basis Set <=

    Name: THIS_BASIS
    Role: ORBITAL
    Keyword: BASIS
    atoms 1, 4-6 entry H          line    15 file /home/vance/anaconda3/envs/p4env/share/psi4/basis/def2-qzvpp.gbs 
    atoms 2      entry I          line  3401 (ECP: line  4988) file /home/vance/anaconda3/envs/p4env/share/psi4/basis/def2-qzvpp.gbs 
    atoms 3      entry N          line   242 file /home/vance/anaconda3/envs/p4env/share/psi4/basis/def2-qzvpp.gbs 

    !!!  WARNING: ECP capability is in beta. Please check occupations closely.  !!!


         ---------------------------------------------------------
                          SAPT(DFT): DFT Monomer B                 
         ---------------------------------------------------------
                                   SCF
               by Justin Turney, Rob Parrish, Andy Simmonett
                          and Daniel G. A. Smith
                              RKS Reference
                        4 Threads,   7629 MiB Core
         ---------------------------------------------------------

  ==> Geometry <==

    Molecular point group: c1
    Full point group: C1

    Geometry (in Angstrom), charge = 0, multiplicity = 1:

       Center              X                  Y                   Z               Mass       
    ------------   -----------------  -----------------  -----------------  -----------------
      Gh(H)          -0.110393275222     0.111041948084     1.298752343834     1.007825032230
      Gh(I)           0.035506724778    -0.035728051916    -0.418057656166   126.904471900000
         N           -0.252933275222     0.254511948084     2.978022343834    14.003074004430
         H            0.037116724778    -0.606078051916     3.424712343834     1.007825032230
         H            0.331056724778     1.010771948084     3.311622343834     1.007825032230
         H           -1.214413275222     0.446831948084     3.228692343834     1.007825032230

  Running in c1 symmetry.

  Rotational constants: A =      6.16453  B =      0.09091  C =      0.09091 [cm^-1]
  Rotational constants: A = 184808.10807  B =   2725.47432  C =   2725.47412 [MHz]
  Nuclear repulsion =   11.944039389132863

  Charge       = 0
  Multiplicity = 1
  Electrons    = 10
  Nalpha       = 5
  Nbeta        = 5

  ==> Algorithm <==

  SCF Algorithm Type is DF.
  DIIS enabled.
  MOM disabled.
  Fractional occupation disabled.
  Guess Type is SAD.
  Energy threshold   = 1.00e-08
  Density threshold  = 1.00e-08
  Integral threshold = 1.00e-12

  ==> Primary Basis <==

  Basis Set: THIS_BASIS
    Blend: DEF2-QZVPP
    Number of shells: 79
    Number of basis functions: 259
    Number of Cartesian functions: 316
    Spherical Harmonics?: true
    Max angular momentum: 4

  Core potential: THIS_BASIS
    Number of shells: 4
    Number of ECP primitives: 29
    Number of ECP core electrons: 0
    Max angular momentum: 3

  ==> DFT Potential <==

   => LibXC <=

    Version 6.2.2
    S. Lehtola, C. Steigemann, M. J.T. Oliveira, and M. A.L. Marques.,  SoftwareX 7, 15 (2018) (10.1016/j.softx.2017.11.002)

   => Composite Functional: PBE0 <= 

    PBE0 Hyb-GGA Exchange-Correlation Functional

    C. Adamo and V. Barone.,  J. Chem. Phys. 110, 6158 (1999) (10.1063/1.478522)
    M. Ernzerhof and G. E. Scuseria.,  J. Chem. Phys. 110, 5029 (1999) (10.1063/1.478401)

    Deriv               =              1
    GGA                 =           TRUE
    Meta                =          FALSE

    Exchange Hybrid     =           TRUE
    MP2 Hybrid          =          FALSE

   => Exchange Functionals <=

    0.7500   Perdew, Burke & Ernzerhof

   => Exact (HF) Exchange <=

    0.2500               HF 

   => Correlation Functionals <=

    1.0000   Perdew, Burke & Ernzerhof

   => LibXC Density Thresholds  <==

    XC_HYB_GGA_XC_PBEH:  1.00E-15 

   => Asymptotic Correction <=

    X Functional        =    XC_GGA_X_LB
    C Functional        =   XC_LDA_C_VWN
    Bulk Shift          =       0.113162
    GRAC Alpha          =       0.500000
    GRAC Beta           =      40.000000

   => Molecular Quadrature <=

    Radial Scheme          =       TREUTLER
    Pruning Scheme         =           NONE
    Nuclear Scheme         =       TREUTLER

    Blocking Scheme        =         OCTREE
    BS radius alpha        =              1
    Pruning alpha          =              1
    Radial Points          =             75
    Spherical Points       =            302
    Total Points           =         130294
    Total Blocks           =           1039
    Max Points             =            256
    Max Functions          =            250
    Weights Tolerance      =       1.00E-15

   => Loading Basis Set <=

    Name: (THIS_BASIS AUX)
    Role: JKFIT
    Keyword: DF_BASIS_SCF
    atoms 1, 4-6 entry H          line    18 file /home/vance/anaconda3/envs/p4env/share/psi4/basis/def2-universal-jkfit.gbs 
    atoms 2      entry I          line  4980 file /home/vance/anaconda3/envs/p4env/share/psi4/basis/def2-universal-jkfit.gbs 
    atoms 3      entry N          line   258 file /home/vance/anaconda3/envs/p4env/share/psi4/basis/def2-universal-jkfit.gbs 

  ==> Integral Setup <==

  ==> DiskDFJK: Density-Fitted J/K Matrices <==

    J tasked:                  Yes
    K tasked:                  Yes
    wK tasked:                  No
    OpenMP threads:              4
    Integrals threads:           4
    Memory [MiB]:             4945
    Algorithm:                Core
    Integral Cache:           SAVE
    Schwarz Cutoff:          1E-12
    Fitting Condition:       1E-10

   => Auxiliary Basis Set <=

  Basis Set: (THIS_BASIS AUX)
    Blend: DEF2-UNIVERSAL-JKFIT
    Number of shells: 95
    Number of basis functions: 367
    Number of Cartesian functions: 482
    Spherical Harmonics?: true
    Max angular momentum: 5

  Cached 100.0% of DFT collocation blocks in 0.758 [GiB].

  Minimum eigenvalue in the overlap matrix is 1.0745550687E-04.
  Reciprocal condition number of the overlap matrix is 1.2709444281E-05.
    Using symmetric orthogonalization.

  ==> Pre-Iterations <==

  SCF Guess: Superposition of Atomic Densities via on-the-fly atomic UHF (no occupation information).

   -------------------------
    Irrep   Nso     Nmo    
   -------------------------
     A        259     259 
   -------------------------
    Total     259     259
   -------------------------

  ==> Iterations <==

                           Total Energy        Delta E     RMS |[F,P]|

   @DF-RKS iter SAD:   -56.06842898279718   -5.60684e+01   0.00000e+00 
   @DF-RKS iter   1:   -56.27973686055918   -2.11308e-01   3.00371e-03 DIIS/ADIIS
   @DF-RKS iter   2:   -56.01991040596823    2.59826e-01   3.93597e-03 DIIS/ADIIS
   @DF-RKS iter   3:   -56.51861127838306   -4.98701e-01   2.10690e-04 DIIS/ADIIS
   @DF-RKS iter   4:   -56.52009757487069   -1.48630e-03   1.81041e-05 DIIS
   @DF-RKS iter   5:   -56.52010465376250   -7.07889e-06   4.83761e-06 DIIS
   @DF-RKS iter   6:   -56.52010474914756   -9.53851e-08   1.91350e-07 DIIS
   @DF-RKS iter   7:   -56.52010471543514    3.37124e-08   2.41766e-08 DIIS
   @DF-RKS iter   8:   -56.52010470691781    8.51733e-09   2.85124e-09 DIIS
  Energy and wave function converged.


  ==> Post-Iterations <==

   Electrons on quadrature grid:
      Ntotal   =   10.0000109625 ; deviation = 1.096e-05 

    Orbital Energies [Eh]
    ---------------------

    Doubly Occupied:                                                      

       1A    -14.471241     2A     -0.986460     3A     -0.591361  
       4A     -0.591358     5A     -0.390548  

    Virtual:                                                              

       6A     -0.085832     7A     -0.016358     8A     -0.016357  
       9A      0.005885    10A      0.045460    11A      0.045464  
      12A      0.057420    13A      0.116733    14A      0.116736  
      15A      0.131317    16A      0.187852    17A      0.263806  
      18A      0.265433    19A      0.265436    20A      0.277301  
      21A      0.277322    22A      0.320025    23A      0.334395  
      24A      0.334438    25A      0.379371    26A      0.379379  
      27A      0.413712    28A      0.423988    29A      0.423992  
      30A      0.505502    31A      0.519526    32A      0.613887  
      33A      0.654081    34A      0.656508    35A      0.656544  
      36A      0.693625    37A      0.693629    38A      0.746765  
      39A      0.807270    40A      0.807291    41A      0.866898  
      42A      0.866905    43A      0.937805    44A      0.956544  
      45A      0.956872    46A      0.959626    47A      0.959682  
      48A      1.012800    49A      1.012806    50A      1.029569  
      51A      1.079667    52A      1.088200    53A      1.089005  
      54A      1.089009    55A      1.188038    56A      1.229696  
      57A      1.229734    58A      1.238035    59A      1.238038  
      60A      1.275838    61A      1.284296    62A      1.284300  
      63A      1.348877    64A      1.348889    65A      1.389886  
      66A      1.579595    67A      1.635825    68A      1.635840  
      69A      1.723938    70A      1.896111    71A      1.943021  
      72A      1.943044    73A      2.012178    74A      2.023836  
      75A      2.023845    76A      2.039335    77A      2.138695  
      78A      2.138705    79A      2.225247    80A      2.225251  
      81A      2.300324    82A      2.300326    83A      2.324651  
      84A      2.324676    85A      2.359952    86A      2.435843  
      87A      2.487729    88A      2.487738    89A      2.509874  
      90A      2.515739    91A      2.521443    92A      2.521446  
      93A      2.522712    94A      2.583231    95A      2.622870  
      96A      2.622880    97A      2.676523    98A      2.676545  
      99A      2.680510   100A      2.809279   101A      2.809314  
     102A      2.884698   103A      2.886495   104A      2.886563  
     105A      2.895148   106A      2.922451   107A      2.922532  
     108A      3.051763   109A      3.072586   110A      3.072661  
     111A      3.072663   112A      3.072934   113A      3.079052  
     114A      3.079058   115A      3.180774   116A      3.195893  
     117A      3.247841   118A      3.247846   119A      3.276305  
     120A      3.296132   121A      3.296141   122A      3.350044  
     123A      3.350050   124A      3.484324   125A      3.487904  
     126A      3.487905   127A      3.565434   128A      3.565447  
     129A      3.614352   130A      3.802641   131A      3.816053  
     132A      3.821088   133A      3.821142   134A      3.971092  
     135A      3.971142   136A      4.173208   137A      4.199807  
     138A      4.199814   139A      4.237293   140A      4.442792  
     141A      4.964665   142A      4.964685   143A      4.966533  
     144A      5.727659   145A      5.727665   146A      5.833562  
     147A      5.833569   148A      5.886105   149A      5.917248  
     150A      5.917260   151A      5.948112   152A      6.132246  
     153A      6.146005   154A      6.277860   155A      6.283740  
     156A      6.283774   157A      6.461267   158A      6.484435  
     159A      6.484466   160A      6.540954   161A      6.540959  
     162A      6.818403   163A      6.865126   164A      6.865139  
     165A      6.897960   166A      7.141775   167A      7.141787  
     168A      7.177926   169A      7.177927   170A      7.204517  
     171A      7.230068   172A      7.230104   173A      7.460416  
     174A      7.550896   175A      7.571283   176A      7.571298  
     177A      7.713529   178A      7.713545   179A      7.792951  
     180A      7.830472   181A      7.867825   182A      7.909936  
     183A      7.909976   184A      8.059194   185A      8.091674  
     186A      8.091736   187A      8.137037   188A      8.150825  
     189A      8.233687   190A      8.253545   191A      8.253568  
     192A      8.409313   193A      8.409338   194A      8.511534  
     195A      8.511544   196A      8.514830   197A      8.717021  
     198A      8.717210   199A      8.724369   200A      8.836088  
     201A      8.836103   202A      9.004515   203A      9.004535  
     204A      9.204048   205A      9.226140   206A      9.226145  
     207A      9.488248   208A      9.513629   209A      9.513643  
     210A      9.642248   211A      9.642269   212A      9.776223  
     213A      9.864198   214A      9.922534   215A      9.971899  
     216A      9.971917   217A     10.159849   218A     10.438852  
     219A     10.461680   220A     10.461950   221A     10.469502  
     222A     10.469503   223A     10.646123   224A     10.646124  
     225A     11.068944   226A     11.120308   227A     11.120311  
     228A     11.122282   229A     11.577449   230A     11.577467  
     231A     11.583965   232A     11.757018   233A     11.757071  
     234A     11.893222   235A     13.648825   236A     13.648825  
     237A     14.279093   238A     14.279113   239A     14.311294  
     240A     14.480788   241A     14.480791   242A     14.550689  
     243A     14.550696   244A     15.095905   245A     15.192942  
     246A     32.346708   247A     32.346758   248A     32.346887  
     249A     32.346888   250A     32.407024   251A     32.407024  
     252A     32.563940   253A     36.039544   254A     38.310072  
     255A     90.817179   256A     90.817183   257A     90.883844  
     258A    167.697551   259A    197.806489  

    Final Occupation by Irrep:
              A 
    DOCC [     5 ]
    NA   [     5 ]
    NB   [     5 ]

  @DF-RKS Final Energy:   -56.52010470691781

   => Energetics <=

    Nuclear Repulsion Energy =             11.9440393891328629
    One-Electron Energy =                 -99.6856152114839489
    Two-Electron Energy =                  37.2643623738535013
    DFT Exchange-Correlation Energy =      -6.0428912584202266
    Empirical Dispersion Energy =           0.0000000000000000
    VV10 Nonlocal Energy =                  0.0000000000000000
    Total Energy =                        -56.5201047069178060

Computation Completed


Properties will be evaluated at   0.000000,   0.000000,   0.000000 [a0]

Properties computed using the SCF density matrix


 Multipole Moments:

 ------------------------------------------------------------------------------------
     Multipole            Electronic (a.u.)      Nuclear  (a.u.)        Total (a.u.)
 ------------------------------------------------------------------------------------

 L = 1.  Multiply by 2.5417464519 to convert [e a0] to [Debye]
 Dipole X            :          4.8971935           -4.9449838           -0.0477904
 Dipole Y            :         -4.9277639            4.9758558            0.0480918
 Dipole Z            :        -57.6611981           58.2246983            0.5635002
 Magnitude           :                                                    0.5675643

 ------------------------------------------------------------------------------------

*** tstop() called on cmpsrv002 at Thu Sep 19 14:00:33 2024
Module time:
	user time   =      49.01 seconds =       0.82 minutes
	system time =       2.03 seconds =       0.03 minutes
	total time  =         48 seconds =       0.80 minutes
Total time:
	user time   =     162.84 seconds =       2.71 minutes
	system time =      11.32 seconds =       0.19 minutes
	total time  =        188 seconds =       3.13 minutes

         ---------------------------------------------------------
               SAPT(DFT): Intermolecular Interaction Segment       

                   by Daniel G. A. Smith and Rob Parrish           
         ---------------------------------------------------------

  ==> Algorithm <==

   SAPT DFT Functional             PBE0
   Monomer A GRAC Shift        0.094577
   Monomer B GRAC Shift        0.113162
   Delta HF                        True
   JK Algorithm                      DF

  ==> Preparing SAPT Data Cache <== 

  ==> DiskDFJK: Density-Fitted J/K Matrices <==

    J tasked:                  Yes
    K tasked:                  Yes
    wK tasked:                  No
    OpenMP threads:              4
    Integrals threads:           4
    Memory [MiB]:             4945
    Algorithm:                Core
    Integral Cache:           SAVE
    Schwarz Cutoff:          1E-12
    Fitting Condition:       1E-10

   => Auxiliary Basis Set <=

  Basis Set: (THIS_BASIS AUX)
    Blend: DEF2-UNIVERSAL-JKFIT
    Number of shells: 95
    Number of basis functions: 367
    Number of Cartesian functions: 482
    Spherical Harmonics?: true
    Max angular momentum: 5


  ==> E10 Electostatics <== 

    Elst10,r                        -35.02928277 [mEh]

  ==> E10 Exchange <== 

    Exch10(S^2)                      57.69329968 [mEh]
    Exch10                           60.63713633 [mEh]

  ==> E20 Induction <== 

   => Uncoupled Induction <= 

    Ind20,u (A<-B)                  -14.30949827 [mEh]
    Ind20,u (A->B)                  -12.21478384 [mEh]
    Ind20,u                         -26.52428211 [mEh]
    Exch-Ind20,u (A<-B)               9.60397538 [mEh]
    Exch-Ind20,u (A->B)               4.27327359 [mEh]
    Exch-Ind20,u                     13.87724897 [mEh]
    Exch-Ind20,u (A<-B) (S^inf)      10.66914511 [mEh]
    Exch-Ind20,u (A->B) (S^inf)       5.28409657 [mEh]
    Exch-Ind20,u (S^inf)             15.95324168 [mEh]

   => Coupled Induction <= 

   ---------------------------------------------------
              SAPT Coupled Induction Solver           
   ---------------------------------------------------
    Maxiter             =          20
    Convergence         =   1.000E-06
   ---------------------------------------------------
     Iter       (A<-B)           (B->A)      Time [s]
   ---------------------------------------------------
    Guess    2.189803e-01     1.611936e-01          7
        1    5.021296e-02     5.114810e-02         16
        2    1.483219e-02     1.962222e-02         26
        3    1.638366e-03     1.915052e-03         36
        4    5.143154e-04     1.428174e-04         47
        5    7.836642e-05     9.816923e-06         59
        6    9.795673e-06     1.064312e-06         72
        7    1.134822e-06     1.022643e-07*        85
        8    1.617604e-07*    1.022643e-07*        92
   ---------------------------------------------------

    Ind20,r (A<-B)                  -14.30160840 [mEh]
    Ind20,r (A->B)                  -13.05081381 [mEh]
    Ind20,r                         -27.35242221 [mEh]
    Exch-Ind20,r (A<-B)              10.80837216 [mEh]
    Exch-Ind20,r (A->B)               4.94853288 [mEh]
    Exch-Ind20,r                     15.75690504 [mEh]
    Exch-Ind20,r (A<-B) (S^inf)      12.01999022 [mEh]
    Exch-Ind20,r (A->B) (S^inf)       6.10081737 [mEh]
    Exch-Ind20,r (S^inf)             18.12080759 [mEh]
   => Loading Basis Set <=

    Name: (THIS_BASIS AUX)
    Role: RIFIT
    Keyword: DF_BASIS_MP2
    atoms 1, 4-6 entry H          line    24 file /home/vance/anaconda3/envs/p4env/share/psi4/basis/def2-qzvpp-ri.gbs 
    atoms 2      entry I          line  4948 file /home/vance/anaconda3/envs/p4env/share/psi4/basis/def2-qzvpp-ri.gbs 
    atoms 3      entry N          line   338 file /home/vance/anaconda3/envs/p4env/share/psi4/basis/def2-qzvpp-ri.gbs 



  ==> E20 Dispersion (CHF FDDS) <== 

   Legendre Points:          10
   Lambda Shift:          0.300
   Fxc Kernal:             ALDA
   (P|Fxc|Q) Thresh:  1.000e-06
  DFHelper Memory: AOs need 0.322 GiB; user supplied 5.960 GiB. 
  Using in-core AOs.

  ==> DFHelper <==
    NBF:                             259
    NAux:                            641
    Schwarz Cutoff:                1E-12
    Mask sparsity (%):                 7
    DFH Avail. Memory [GiB]:       5.960
    OpenMP threads:                    4
    Algorithm:                    DIRECT
    AO Core:                        True
    MO Core:                       False
    Hold Metric:                   False
    Metric Power:                  0.000
    Fitting Condition:             1E-12
    Q Shell Max:                      13


  DFHelper Memory: AOs need 0.345 GiB; user supplied 5.960 GiB. 
  Using in-core AOs.


   => Time Integration <= 

       Omega       Weight       Disp20,u         Disp20   time [s]
   2.269e+01    6.667e-02      3.088e-04      2.905e-04          6
   4.147e+00    1.495e-01      5.332e-03      4.810e-03          9
   1.572e+00    2.191e-01      1.568e-02      1.310e-02         13
   7.589e-01    2.693e-01      2.606e-02      1.969e-02         17
   4.049e-01    2.955e-01      3.007e-02      2.050e-02         20
   2.223e-01    2.955e-01      2.613e-02      1.657e-02         23
   1.186e-01    2.693e-01      1.870e-02      1.145e-02         25
   5.727e-02    2.191e-01      1.190e-02      7.199e-03         28
   2.170e-02    1.495e-01      6.712e-03      4.046e-03         31
   3.966e-03    6.667e-02      2.682e-03      1.616e-03         35

    Disp20,u                        -22.85080508 [mEh]
    Disp20                          -15.80133299 [mEh]

  ==> E20 Dispersion (MP2) <== 


    Disp20 (MP2)                    -22.81724427 [mEh]
    Exch-Disp20,u                     4.78297035 [mEh]
    Scaling Scheme                    FIXED
    Scaling Factor                    0.770
    Est. Exch-Disp20,r                3.68288717 [mEh]

   SAPT(DFT) Results
  ---------------------------------------------------------------------------------------------------------
    Electrostatics                  -35.02928277 [mEh]    -21.98120680 [kcal/mol]    -91.96936923 [kJ/mol]
      Elst1,r                       -35.02928277 [mEh]    -21.98120680 [kcal/mol]    -91.96936923 [kJ/mol]

    Exchange                         60.63713632 [mEh]     38.05037751 [kcal/mol]    159.20277949 [kJ/mol]
      Exch1                          60.63713632 [mEh]     38.05037751 [kcal/mol]    159.20277949 [kJ/mol]
      Exch1(S^2)                     57.69329968 [mEh]     36.20309212 [kcal/mol]    151.47373743 [kJ/mol]

    Induction                       -29.35732886 [mEh]    -18.42200198 [kcal/mol]    -77.07765630 [kJ/mol]
      Ind2,r                        -27.35242221 [mEh]    -17.16390407 [kcal/mol]    -71.81377462 [kJ/mol]
      Exch-Ind2,r                    15.75690504 [mEh]      9.88760719 [kcal/mol]     41.36974849 [kJ/mol]
      Induction (A<-B)               -3.49323624 [mEh]     -2.19203884 [kcal/mol]     -9.17149049 [kJ/mol]
      Induction (A->B)               -8.10228093 [mEh]     -5.08425804 [kcal/mol]    -21.27253564 [kJ/mol]
      delta HF,r (2)                -17.76181169 [mEh]    -11.14570511 [kcal/mol]    -46.63363016 [kJ/mol]

    Dispersion                      -12.11844582 [mEh]     -7.60443956 [kcal/mol]    -31.81697512 [kJ/mol]
      Disp2,r                       -15.80133299 [mEh]     -9.91548615 [kcal/mol]    -41.48639406 [kJ/mol]
      Disp2,u                       -22.81724427 [mEh]    -14.31803694 [kcal/mol]    -59.90666657 [kJ/mol]
      Est. Exch-Disp2,r               3.68288717 [mEh]      2.31104659 [kcal/mol]      9.66941894 [kJ/mol]
      Exch-Disp2,u                    4.78297035 [mEh]      3.00135921 [kcal/mol]     12.55768694 [kJ/mol]

    Total SAPT(DFT)                 -15.86792112 [mEh]     -9.95727083 [kcal/mol]    -41.66122116 [kJ/mol]
  ---------------------------------------------------------------------------------------------------------

*** tstop() called on cmpsrv002 at Thu Sep 19 14:31:56 2024
Module time:
	user time   =     510.61 seconds =       8.51 minutes
	system time =      28.83 seconds =       0.48 minutes
	total time  =       1979 seconds =      32.98 minutes
Total time:
	user time   =     610.11 seconds =      10.17 minutes
	system time =      36.83 seconds =       0.61 minutes
	total time  =       2077 seconds =      34.62 minutes

Traceback (most recent call last):
  File "/home/vance/anaconda3/envs/p4env/bin/psi4", line 387, in <module>
    exec(content)
  File "<string>", line 61, in <module>
  File "/home/vance/anaconda3/envs/p4env/lib/python3.12/site-packages/psi4/driver/p4util/python_helpers.py", line 1121, in _core_variable
    raise KeyError(f"psi4.core.variable: Requested variable '{key}' was not set!\n")

KeyError: "psi4.core.variable: Requested variable 'SAPT IND20,R ENERGY' was not set!\n"


Printing out the relevant lines from the Psithon --> Python processed input file:
    eelst = psi4.core.variable('SAPT ELST ENERGY')
    eexch = psi4.core.variable('SAPT EXCH ENERGY')
    eind = psi4.core.variable('SAPT IND ENERGY')
    edisp = psi4.core.variable('SAPT DISP ENERGY')
    esapt = psi4.core.variable('SAPT TOTAL ENERGY')
--> eind20r = psi4.core.variable('SAPT IND20,R ENERGY')
    eexind20r = psi4.core.variable('SAPT EXCH-IND20,R ENERGY')
    eind20u = psi4.core.variable('SAPT IND20,U ENERGY')
    eexind20u = psi4.core.variable('SAPT EXCH-IND20,U ENERGY')
    edisp20 = psi4.core.variable('SAPT DISP20 ENERGY')
    eexdisp20 = psi4.core.variable('SAPT EXCH-DISP20 ENERGY')

!--------------------------------------------------------------------------------!
!                                                                                !
!  "psi4.core.variable: Requested variable 'SAPT IND20,R ENERGY' was not set!\n" !
!                                                                                !
!--------------------------------------------------------------------------------!

    Psi4 stopped on: Thursday, 19 September 2024 02:31PM
    Psi4 wall time for execution: 0:34:37.24

*** Psi4 encountered an error. Buy a developer more coffee!
*** Resources and help at github.com/psi4/psi4.
