
    -----------------------------------------------------------------------
          Psi4: An Open-Source Ab Initio Electronic Structure Package
                               Psi4 1.9.1 release

                         Git: Rev {} zzzzzzz 


    D. G. A. Smith, L. A. Burns, A. C. Simmonett, R. M. Parrish,
    M. C. Schieber, R. Galvelis, P. Kraus, H. Kruse, R. Di Remigio,
    A. Alenaizan, A. M. James, S. Lehtola, J. P. Misiewicz, M. Scheurer,
    R. A. Shaw, J. B. Schriber, Y. Xie, Z. L. Glick, D. A. Sirianni,
    J. S. O'Brien, J. M. Waldrop, A. Kumar, E. G. Hohenstein,
    B. P. Pritchard, B. R. Brooks, H. F. Schaefer III, A. Yu. Sokolov,
    K. Patkowski, A. E. DePrince III, U. Bozkaya, R. A. King,
    F. A. Evangelista, J. M. Turney, T. D. Crawford, C. D. Sherrill,
    J. Chem. Phys. 152(18) 184108 (2020). https://doi.org/10.1063/5.0006002

                            Additional Code Authors
    E. T. Seidl, C. L. Janssen, E. F. Valeev, M. L. Leininger,
    J. F. Gonthier, R. M. Richard, H. R. McAlexander, M. Saitow, X. Wang,
    P. Verma, M. H. Lechner, A. Jiang, S. Behnle, A. G. Heide,
    M. F. Herbst, and D. L. Poole

             Previous Authors, Complete List of Code Contributors,
                       and Citations for Specific Modules
    https://github.com/psi4/psi4/blob/master/codemeta.json
    https://github.com/psi4/psi4/graphs/contributors
    http://psicode.org/psi4manual/master/introduction.html#citing-psifour

    -----------------------------------------------------------------------


    Psi4 started on: Thursday, 19 September 2024 01:57PM

    Process ID: 605183
    Host:       cmpsrv002
    PSIDATADIR: /home/vance/anaconda3/envs/p4env/share/psi4
    Memory:     500.0 MiB
    Threads:    4
    
  ==> Input File <==

--------------------------------------------------------------------------
#charge=0 charge_a=0 charge_b=0 selection_a=1-2 selection_b=3-6 scaling=0.95 benchmark_Eint=-8.040 benchmark_unit=kcal/mol group=XH-N
set_num_threads(4)
memory 8 GB
basis this_basis {
    assign    def2-qzvpp
}

molecule {
     0 1
    --
     0 1
     H       -0.13083        0.13151       -0.43120
     I        0.01507       -0.01526       -2.14801
    --
     0 1
     N       -0.25980        0.26131        1.08814
     H        0.03026       -0.59927        1.53482
     H        0.32420        1.01757        1.42174
     H       -1.22128        0.45364        1.33881
}

set {
    sapt_dft_functional     PBE0
    scf_type                DF
    freeze_core             true
    sapt_dft_grac_shift_a    0.094577
    sapt_dft_grac_shift_b    0.113162
    sapt_dft_do_hybrid      true
    do_ind_exch_sinf        true
    do_disp_exch_sinf       true
}

nrg = energy('sapt(DFT)')

eelst = psi4.variable('SAPT ELST ENERGY')
eexch = psi4.variable('SAPT EXCH ENERGY')
eind = psi4.variable('SAPT IND ENERGY')
edisp = psi4.variable('SAPT DISP ENERGY')
esapt = psi4.variable('SAPT TOTAL ENERGY')
eind20r = psi4.variable('SAPT IND20,R ENERGY')
eexind20r = psi4.variable('SAPT EXCH-IND20,R ENERGY')
eind20u = psi4.variable('SAPT IND20,U ENERGY')
eexind20u = psi4.variable('SAPT EXCH-IND20,U ENERGY')
edisp20 = psi4.variable('SAPT DISP20 ENERGY')
eexdisp20 = psi4.variable('SAPT EXCH-DISP20 ENERGY')
eexch10 = psi4.variable('SAPT EXCH10 ENERGY')
eexch10s2 = psi4.variable('SAPT EXCH10(S^2) ENERGY')
print('sapt elst energy =', eelst)
print('sapt total induction energy =', eind)
print('sapt total dispersion energy =', edisp)
print('sapt total energy =', esapt)
print('sapt ind20,r energy =', eind20r)
print('sapt exch-ind20,r energy =', eexind20r)
print('sapt ind20,u energy =', eind20u)
print('sapt exch-ind20,u energy =', eexind20u)
print('sapt disp20 (u or r?) energy =', edisp20)
print('sapt exch-disp20 (u or r?) energy =', eexdisp20)
print('sapt exch10 (u or r? which s?) energy =', eexch10)
print('sapt exch10 s^2 (u or r?) energy =', eexch10s2)
--------------------------------------------------------------------------
  Threads set to 4 by Python driver.

  Memory set to   7.451 GiB by Python driver.

Scratch directory: /scratch2/vance/psi4/

*** tstart() called on cmpsrv002
*** at Thu Sep 19 13:57:24 2024


         ---------------------------------------------------------
                            SAPT(DFT) Procedure                    

                           by Daniel G. A. Smith                   
         ---------------------------------------------------------

Warning! The default value of SAPT_DFT_EXCH_DISP_SCALE_SCHEME has changed from DISP to FIXED. Please be careful comparing results with earlier versions. 

  ==> Algorithm <==

   SAPT DFT Functional             PBE0
   Monomer A GRAC Shift        0.094577
   Monomer B GRAC Shift        0.113162
   Delta HF                        True
   JK Algorithm                      DF

   Required computations:
     HF  (Dimer)
     HF  (Monomer A)
     HF  (Monomer B)
     DFT (Monomer A)
     DFT (Monomer B)

   => Libint2 <=

    Primary   basis highest AM E, G, H:  6, 6, 3
    Auxiliary basis highest AM E, G, H:  7, 7, 4
    Onebody   basis highest AM E, G, H:  -, -, -
    Solid Harmonics ordering:            Gaussian

*** tstart() called on cmpsrv002
*** at Thu Sep 19 13:57:24 2024

   => Loading Basis Set <=

    Name: THIS_BASIS
    Role: ORBITAL
    Keyword: BASIS
    atoms 1, 4-6 entry H          line    15 file /home/vance/anaconda3/envs/p4env/share/psi4/basis/def2-qzvpp.gbs 
    atoms 2      entry I          line  3401 (ECP: line  4988) file /home/vance/anaconda3/envs/p4env/share/psi4/basis/def2-qzvpp.gbs 
    atoms 3      entry N          line   242 file /home/vance/anaconda3/envs/p4env/share/psi4/basis/def2-qzvpp.gbs 

    !!!  WARNING: ECP capability is in beta. Please check occupations closely.  !!!


         ---------------------------------------------------------
                         SAPT(DFT): delta HF Dimer                 
         ---------------------------------------------------------
                                   SCF
               by Justin Turney, Rob Parrish, Andy Simmonett
                          and Daniel G. A. Smith
                              RHF Reference
                        4 Threads,   7629 MiB Core
         ---------------------------------------------------------

  ==> Geometry <==

    Molecular point group: c1
    Full point group: C1

    Geometry (in Angstrom), charge = 0, multiplicity = 1:

       Center              X                  Y                   Z               Mass       
    ------------   -----------------  -----------------  -----------------  -----------------
         H           -0.111987536761     0.112647678888     1.317540033611     1.007825032230
         I            0.033912463239    -0.034122321112    -0.399269966389   126.904471900000
         N           -0.240957536761     0.242447678888     2.836880033611    14.003074004430
         H            0.049102463239    -0.618132321112     3.283560033611     1.007825032230
         H            0.343042463239     0.998707678888     3.170480033611     1.007825032230
         H           -1.202437536761     0.434777678888     3.087550033611     1.007825032230

  Running in c1 symmetry.

  Rotational constants: A =      6.16453  B =      0.09973  C =      0.09973 [cm^-1]
  Rotational constants: A = 184807.96893  B =   2989.93783  C =   2989.93736 [MHz]
  Nuclear repulsion =   61.823458275402139

  Charge       = 0
  Multiplicity = 1
  Electrons    = 36
  Nalpha       = 18
  Nbeta        = 18

  ==> Algorithm <==

  SCF Algorithm Type is DF.
  DIIS enabled.
  MOM disabled.
  Fractional occupation disabled.
  Guess Type is SAD.
  Energy threshold   = 1.00e-08
  Density threshold  = 1.00e-08
  Integral threshold = 1.00e-12

  ==> Primary Basis <==

  Basis Set: THIS_BASIS
    Blend: DEF2-QZVPP
    Number of shells: 79
    Number of basis functions: 259
    Number of Cartesian functions: 316
    Spherical Harmonics?: true
    Max angular momentum: 4

  Core potential: THIS_BASIS
    Number of shells: 4
    Number of ECP primitives: 29
    Number of ECP core electrons: 28
    Max angular momentum: 3

   => Loading Basis Set <=

    Name: (THIS_BASIS AUX)
    Role: JKFIT
    Keyword: DF_BASIS_SCF
    atoms 1, 4-6 entry H          line    18 file /home/vance/anaconda3/envs/p4env/share/psi4/basis/def2-universal-jkfit.gbs 
    atoms 2      entry I          line  4980 file /home/vance/anaconda3/envs/p4env/share/psi4/basis/def2-universal-jkfit.gbs 
    atoms 3      entry N          line   258 file /home/vance/anaconda3/envs/p4env/share/psi4/basis/def2-universal-jkfit.gbs 

  ==> Integral Setup <==

  ==> DiskDFJK: Density-Fitted J/K Matrices <==

    J tasked:                  Yes
    K tasked:                  Yes
    wK tasked:                  No
    OpenMP threads:              4
    Integrals threads:           4
    Memory [MiB]:             5722
    Algorithm:                Core
    Integral Cache:           SAVE
    Schwarz Cutoff:          1E-12
    Fitting Condition:       1E-10

   => Auxiliary Basis Set <=

  Basis Set: (THIS_BASIS AUX)
    Blend: DEF2-UNIVERSAL-JKFIT
    Number of shells: 95
    Number of basis functions: 367
    Number of Cartesian functions: 482
    Spherical Harmonics?: true
    Max angular momentum: 5

  Minimum eigenvalue in the overlap matrix is 1.0046494968E-04.
  Reciprocal condition number of the overlap matrix is 1.1586226181E-05.
    Using symmetric orthogonalization.

  ==> Pre-Iterations <==

  SCF Guess: Superposition of Atomic Densities via on-the-fly atomic UHF (no occupation information).

   -------------------------
    Irrep   Nso     Nmo    
   -------------------------
     A        259     259 
   -------------------------
    Total     259     259
   -------------------------

  ==> Iterations <==

                           Total Energy        Delta E     RMS |[F,P]|

   @DF-RHF iter SAD:  -350.20550829906040   -3.50206e+02   0.00000e+00 
   @DF-RHF iter   1:  -353.00723298079390   -2.80172e+00   3.67465e-03 DIIS/ADIIS
   @DF-RHF iter   2:  -353.39708768117572   -3.89855e-01   2.09554e-03 DIIS/ADIIS
   @DF-RHF iter   3:  -353.46384220217527   -6.67545e-02   1.75201e-04 DIIS/ADIIS
   @DF-RHF iter   4:  -353.46557176103715   -1.72956e-03   6.51680e-05 DIIS
   @DF-RHF iter   5:  -353.46583211230461   -2.60351e-04   3.24990e-05 DIIS
   @DF-RHF iter   6:  -353.46587569574274   -4.35834e-05   8.06447e-06 DIIS
   @DF-RHF iter   7:  -353.46588185606510   -6.16032e-06   2.49466e-06 DIIS
   @DF-RHF iter   8:  -353.46588221824635   -3.62181e-07   7.60597e-07 DIIS
   @DF-RHF iter   9:  -353.46588228671226   -6.84659e-08   1.69771e-07 DIIS
   @DF-RHF iter  10:  -353.46588228979658   -3.08432e-09   3.25234e-08 DIIS
   @DF-RHF iter  11:  -353.46588228992448   -1.27898e-10   7.40954e-09 DIIS
  Energy and wave function converged.


  ==> Post-Iterations <==

    Orbital Energies [Eh]
    ---------------------

    Doubly Occupied:                                                      

       1A    -15.612088     2A     -7.684523     3A     -5.535687  
       4A     -5.531331     5A     -5.531331     6A     -2.231346  
       7A     -2.228438     8A     -2.228438     9A     -2.223579  
      10A     -2.223579    11A     -1.217445    12A     -0.855893  
      13A     -0.703368    14A     -0.703364    15A     -0.594224  
      16A     -0.380790    17A     -0.336832    18A     -0.336832  

    Virtual:                                                              

      19A      0.072818    20A      0.130369    21A      0.130371  
      22A      0.155341    23A      0.195519    24A      0.233199  
      25A      0.233203    26A      0.252265    27A      0.252266  
      28A      0.283371    29A      0.302303    30A      0.322755  
      31A      0.322757    32A      0.356854    33A      0.356878  
      34A      0.396989    35A      0.471889    36A      0.474696  
      37A      0.474700    38A      0.523560    39A      0.523567  
      40A      0.583720    41A      0.746923    42A      0.748549  
      43A      0.748553    44A      0.810034    45A      0.810055  
      46A      0.820911    47A      0.853451    48A      0.854213  
      49A      0.859279    50A      0.864309    51A      0.864311  
      52A      0.911057    53A      0.954827    54A      0.954827  
      55A      0.980302    56A      1.002522    57A      1.002529  
      58A      1.015458    59A      1.015463    60A      1.056027  
      61A      1.056035    62A      1.068520    63A      1.068528  
      64A      1.087309    65A      1.112234    66A      1.163483  
      67A      1.163485    68A      1.242386    69A      1.318572  
      70A      1.318588    71A      1.327426    72A      1.363432  
      73A      1.408761    74A      1.478272    75A      1.478296  
      76A      1.604632    77A      1.604633    78A      1.609217  
      79A      1.610195    80A      1.638751    81A      1.638753  
      82A      1.711244    83A      1.815010    84A      1.858151  
      85A      1.858170    86A      1.992268    87A      1.992273  
      88A      2.051596    89A      2.149290    90A      2.149577  
      91A      2.158469    92A      2.158469    93A      2.190747  
      94A      2.190750    95A      2.286512    96A      2.306626  
      97A      2.306637    98A      2.329848    99A      2.334703  
     100A      2.373790   101A      2.373801   102A      2.491316  
     103A      2.491362   104A      2.540493   105A      2.540507  
     106A      2.597554   107A      2.597562   108A      2.625843  
     109A      2.672633   110A      2.672645   111A      2.688977  
     112A      2.791473   113A      2.791538   114A      2.848698  
     115A      2.941289   116A      2.943087   117A      2.943107  
     118A      2.976942   119A      2.976945   120A      3.010594  
     121A      3.093263   122A      3.093275   123A      3.121967  
     124A      3.121996   125A      3.168624   126A      3.183694  
     127A      3.209069   128A      3.209094   129A      3.263925  
     130A      3.296199   131A      3.296235   132A      3.335692  
     133A      3.413910   134A      3.495840   135A      3.495842  
     136A      3.638709   137A      3.714197   138A      3.714209  
     139A      3.785153   140A      3.785155   141A      3.788404  
     142A      3.788652   143A      3.818121   144A      3.905574  
     145A      3.905590   146A      3.920809   147A      4.122988  
     148A      4.177611   149A      4.177645   150A      4.319421  
     151A      4.319453   152A      4.325778   153A      4.566038  
     154A      4.592865   155A      4.592879   156A      4.740505  
     157A      5.406892   158A      5.406932   159A      5.448779  
     160A      6.037175   161A      6.037188   162A      6.067763  
     163A      6.074856   164A      6.200594   165A      6.200610  
     166A      6.235037   167A      6.258540   168A      6.305726  
     169A      6.305743   170A      6.315600   171A      6.315617  
     172A      6.715944   173A      6.740755   174A      6.775867  
     175A      6.775977   176A      6.984653   177A      6.984665  
     178A      6.985440   179A      7.204231   180A      7.274515  
     181A      7.355119   182A      7.355143   183A      7.536584  
     184A      7.536651   185A      7.582861   186A      7.582906  
     187A      7.611645   188A      7.630595   189A      7.630605  
     190A      7.733924   191A      7.951443   192A      7.951472  
     193A      7.993445   194A      8.065402   195A      8.065432  
     196A      8.116604   197A      8.116627   198A      8.241466  
     199A      8.256126   200A      8.287203   201A      8.287251  
     202A      8.412809   203A      8.431614   204A      8.431630  
     205A      8.459149   206A      8.575170   207A      8.575244  
     208A      8.593821   209A      8.624919   210A      8.822643  
     211A      8.822687   212A      8.862996   213A      8.882950  
     214A      8.882981   215A      9.057032   216A      9.082865  
     217A      9.082936   218A      9.199106   219A      9.199151  
     220A      9.394191   221A      9.520886   222A      9.520915  
     223A      9.746185   224A      9.978565   225A     10.015717  
     226A     10.015755   227A     10.095381   228A     10.095389  
     229A     10.244233   230A     10.479751   231A     10.479756  
     232A     10.598703   233A     10.967133   234A     11.582420  
     235A     11.657641   236A     11.657671   237A     12.068669  
     238A     12.085593   239A     12.085610   240A     12.275341  
     241A     12.275369   242A     12.322035   243A     12.322292  
     244A     12.326177   245A     12.326180   246A     12.403623  
     247A     12.446659   248A     12.446662   249A     12.737637  
     250A     14.822659   251A     14.822682   252A     14.947011  
     253A     15.702092   254A     39.454912   255A     40.404714  
     256A     40.404714   257A     40.564819   258A     79.256326  
     259A    200.601268  

    Final Occupation by Irrep:
              A 
    DOCC [    18 ]
    NA   [    18 ]
    NB   [    18 ]

  @DF-RHF Final Energy:  -353.46588228992448

   => Energetics <=

    Nuclear Repulsion Energy =             61.8234582754021389
    One-Electron Energy =                -718.2605031644271776
    Two-Electron Energy =                 302.9711625991005803
    Total Energy =                       -353.4658822899244797

Computation Completed


Properties will be evaluated at   0.000000,   0.000000,   0.000000 [a0]

Properties computed using the SCF density matrix


 Multipole Moments:

 ------------------------------------------------------------------------------------
     Multipole            Electronic (a.u.)      Nuclear  (a.u.)        Total (a.u.)
 ------------------------------------------------------------------------------------

 L = 1.  Multiply by 2.5417464519 to convert [e a0] to [Debye]
 Dipole X            :          3.1314930           -3.3281315           -0.1966385
 Dipole Y            :         -3.1508709            3.3487391            0.1978682
 Dipole Z            :        -36.8688698           39.1844940            2.3156241
 Magnitude           :                                                    2.3323665

 ------------------------------------------------------------------------------------

*** tstop() called on cmpsrv002 at Thu Sep 19 13:57:38 2024
Module time:
	user time   =      12.58 seconds =       0.21 minutes
	system time =       1.63 seconds =       0.03 minutes
	total time  =         14 seconds =       0.23 minutes
Total time:
	user time   =      12.58 seconds =       0.21 minutes
	system time =       1.63 seconds =       0.03 minutes
	total time  =         14 seconds =       0.23 minutes
   => Libint2 <=

    Primary   basis highest AM E, G, H:  6, 6, 3
    Auxiliary basis highest AM E, G, H:  7, 7, 4
    Onebody   basis highest AM E, G, H:  -, -, -
    Solid Harmonics ordering:            Gaussian

*** tstart() called on cmpsrv002
*** at Thu Sep 19 13:57:38 2024

   => Loading Basis Set <=

    Name: THIS_BASIS
    Role: ORBITAL
    Keyword: BASIS
    atoms 1, 4-6 entry H          line    15 file /home/vance/anaconda3/envs/p4env/share/psi4/basis/def2-qzvpp.gbs 
    atoms 2      entry I          line  3401 (ECP: line  4988) file /home/vance/anaconda3/envs/p4env/share/psi4/basis/def2-qzvpp.gbs 
    atoms 3      entry N          line   242 file /home/vance/anaconda3/envs/p4env/share/psi4/basis/def2-qzvpp.gbs 

    !!!  WARNING: ECP capability is in beta. Please check occupations closely.  !!!


         ---------------------------------------------------------
                       SAPT(DFT): delta HF Monomer A               
         ---------------------------------------------------------
                                   SCF
               by Justin Turney, Rob Parrish, Andy Simmonett
                          and Daniel G. A. Smith
                              RHF Reference
                        4 Threads,   7629 MiB Core
         ---------------------------------------------------------

  ==> Geometry <==

    Molecular point group: c1
    Full point group: C1

    Geometry (in Angstrom), charge = 0, multiplicity = 1:

       Center              X                  Y                   Z               Mass       
    ------------   -----------------  -----------------  -----------------  -----------------
         H           -0.111987536761     0.112647678888     1.317540033611     1.007825032230
         I            0.033912463239    -0.034122321112    -0.399269966389   126.904471900000
      Gh(N)          -0.240957536761     0.242447678888     2.836880033611    14.003074004430
      Gh(H)           0.049102463239    -0.618132321112     3.283560033611     1.007825032230
      Gh(H)           0.343042463239     0.998707678888     3.170480033611     1.007825032230
      Gh(H)          -1.202437536761     0.434777678888     3.087550033611     1.007825032230

  Running in c1 symmetry.

  Rotational constants: A =      6.16453  B =      0.09973  C =      0.09973 [cm^-1]
  Rotational constants: A = 184807.96893  B =   2989.93783  C =   2989.93736 [MHz]
  Nuclear repulsion =    7.650438279290174

  Charge       = 0
  Multiplicity = 1
  Electrons    = 26
  Nalpha       = 13
  Nbeta        = 13

  ==> Algorithm <==

  SCF Algorithm Type is DF.
  DIIS enabled.
  MOM disabled.
  Fractional occupation disabled.
  Guess Type is SAD.
  Energy threshold   = 1.00e-08
  Density threshold  = 1.00e-08
  Integral threshold = 1.00e-12

  ==> Primary Basis <==

  Basis Set: THIS_BASIS
    Blend: DEF2-QZVPP
    Number of shells: 79
    Number of basis functions: 259
    Number of Cartesian functions: 316
    Spherical Harmonics?: true
    Max angular momentum: 4

  Core potential: THIS_BASIS
    Number of shells: 4
    Number of ECP primitives: 29
    Number of ECP core electrons: 28
    Max angular momentum: 3

   => Loading Basis Set <=

    Name: (THIS_BASIS AUX)
    Role: JKFIT
    Keyword: DF_BASIS_SCF
    atoms 1, 4-6 entry H          line    18 file /home/vance/anaconda3/envs/p4env/share/psi4/basis/def2-universal-jkfit.gbs 
    atoms 2      entry I          line  4980 file /home/vance/anaconda3/envs/p4env/share/psi4/basis/def2-universal-jkfit.gbs 
    atoms 3      entry N          line   258 file /home/vance/anaconda3/envs/p4env/share/psi4/basis/def2-universal-jkfit.gbs 

  ==> Integral Setup <==

  ==> DiskDFJK: Density-Fitted J/K Matrices <==

    J tasked:                  Yes
    K tasked:                  Yes
    wK tasked:                  No
    OpenMP threads:              4
    Integrals threads:           4
    Memory [MiB]:             5722
    Algorithm:                Core
    Integral Cache:           SAVE
    Schwarz Cutoff:          1E-12
    Fitting Condition:       1E-10

   => Auxiliary Basis Set <=

  Basis Set: (THIS_BASIS AUX)
    Blend: DEF2-UNIVERSAL-JKFIT
    Number of shells: 95
    Number of basis functions: 367
    Number of Cartesian functions: 482
    Spherical Harmonics?: true
    Max angular momentum: 5

  Minimum eigenvalue in the overlap matrix is 1.0046494968E-04.
  Reciprocal condition number of the overlap matrix is 1.1586226181E-05.
    Using symmetric orthogonalization.

  ==> Pre-Iterations <==

  SCF Guess: Superposition of Atomic Densities via on-the-fly atomic UHF (no occupation information).

   -------------------------
    Irrep   Nso     Nmo    
   -------------------------
     A        259     259 
   -------------------------
    Total     259     259
   -------------------------

  ==> Iterations <==

                           Total Energy        Delta E     RMS |[F,P]|

   @DF-RHF iter SAD:  -294.16953984329774   -2.94170e+02   0.00000e+00 
   @DF-RHF iter   1:  -296.92284013914536   -2.75330e+00   3.19870e-03 DIIS/ADIIS
   @DF-RHF iter   2:  -297.18661846424760   -2.63778e-01   1.86503e-03 DIIS/ADIIS
   @DF-RHF iter   3:  -297.23753531312275   -5.09168e-02   1.46377e-04 DIIS/ADIIS
   @DF-RHF iter   4:  -297.23803392903085   -4.98616e-04   6.68148e-05 DIIS
   @DF-RHF iter   5:  -297.23812830381200   -9.43748e-05   1.78031e-05 DIIS
   @DF-RHF iter   6:  -297.23814535907809   -1.70553e-05   3.19466e-06 DIIS
   @DF-RHF iter   7:  -297.23814672837040   -1.36929e-06   5.96463e-07 DIIS
   @DF-RHF iter   8:  -297.23814676707616   -3.87058e-08   1.42981e-07 DIIS
   @DF-RHF iter   9:  -297.23814676907256   -1.99640e-09   2.77020e-08 DIIS
   @DF-RHF iter  10:  -297.23814676916015   -8.75957e-11   5.42983e-09 DIIS
  Energy and wave function converged.


  ==> Post-Iterations <==

    Orbital Energies [Eh]
    ---------------------

    Doubly Occupied:                                                      

       1A     -7.750327     2A     -5.604375     3A     -5.595342  
       4A     -5.595342     5A     -2.300376     6A     -2.295667  
       7A     -2.295667     8A     -2.285475     9A     -2.285475  
      10A     -0.903180    11A     -0.514551    12A     -0.386741  
      13A     -0.386741  

    Virtual:                                                              

      14A      0.046742    15A      0.098329    16A      0.135607  
      17A      0.135608    18A      0.173748    19A      0.208507  
      20A      0.217214    21A      0.217215    22A      0.253389  
      23A      0.253394    24A      0.291201    25A      0.291203  
      26A      0.319097    27A      0.339729    28A      0.365825  
      29A      0.365843    30A      0.425668    31A      0.536212  
      32A      0.536227    33A      0.548652    34A      0.622529  
      35A      0.622531    36A      0.708240    37A      0.754366  
      38A      0.754375    39A      0.789939    40A      0.789942  
      41A      0.808119    42A      0.809923    43A      0.820333  
      44A      0.878076    45A      0.910050    46A      0.910059  
      47A      0.911163    48A      0.943069    49A      0.948300  
      50A      0.948302    51A      0.981869    52A      0.981869  
      53A      0.997079    54A      1.007371    55A      1.007375  
      56A      1.074762    57A      1.074807    58A      1.084583  
      59A      1.111487    60A      1.111494    61A      1.159369  
      62A      1.262256    63A      1.262260    64A      1.274815  
      65A      1.315610    66A      1.367780    67A      1.367783  
      68A      1.472977    69A      1.549720    70A      1.549721  
      71A      1.556325    72A      1.556889    73A      1.556896  
      74A      1.559027    75A      1.616455    76A      1.629914  
      77A      1.629918    78A      1.708259    79A      1.943779  
      80A      1.943781    81A      1.975582    82A      2.096408  
      83A      2.096735    84A      2.109932    85A      2.109932  
      86A      2.134872    87A      2.134883    88A      2.144451  
      89A      2.309816    90A      2.309823    91A      2.317916  
      92A      2.390593    93A      2.390608    94A      2.465558  
      95A      2.473571    96A      2.473602    97A      2.543729  
      98A      2.543740    99A      2.573393   100A      2.664364  
     101A      2.664376   102A      2.681604   103A      2.734624  
     104A      2.734629   105A      2.850221   106A      2.850227  
     107A      2.895158   108A      2.904903   109A      2.904925  
     110A      2.923554   111A      2.923562   112A      2.938038  
     113A      3.011587   114A      3.011634   115A      3.081727  
     116A      3.106047   117A      3.106113   118A      3.134758  
     119A      3.162996   120A      3.163000   121A      3.203876  
     122A      3.274348   123A      3.320588   124A      3.414397  
     125A      3.442563   126A      3.442573   127A      3.476286  
     128A      3.476288   129A      3.539673   130A      3.584947  
     131A      3.584995   132A      3.726273   133A      3.726276  
     134A      3.731351   135A      3.731518   136A      3.780611  
     137A      3.801930   138A      3.801953   139A      3.893815  
     140A      3.893828   141A      3.901727   142A      4.059076  
     143A      4.339960   144A      4.340005   145A      4.367430  
     146A      4.389824   147A      4.536714   148A      4.536749  
     149A      4.546539   150A      4.951530   151A      5.045489  
     152A      5.045499   153A      5.481478   154A      5.966691  
     155A      5.966713   156A      6.058163   157A      6.069468  
     158A      6.223207   159A      6.223227   160A      6.447689  
     161A      6.447710   162A      6.469291   163A      6.496930  
     164A      6.496940   165A      6.545826   166A      6.697371  
     167A      6.697395   168A      7.064090   169A      7.064235  
     170A      7.138815   171A      7.213691   172A      7.213726  
     173A      7.296479   174A      7.382444   175A      7.635285  
     176A      7.635358   177A      7.650442   178A      7.743145  
     179A      7.880561   180A      7.880581   181A      7.964564  
     182A      8.057454   183A      8.057456   184A      8.133032  
     185A      8.232168   186A      8.232214   187A      8.318272  
     188A      8.318319   189A      8.412473   190A      8.533315  
     191A      8.533333   192A      8.646108   193A      8.646126  
     194A      8.706600   195A      8.770790   196A      8.784470  
     197A      8.784497   198A      8.801330   199A      8.902012  
     200A      8.902050   201A      8.982732   202A      9.046365  
     203A      9.046375   204A      9.121518   205A      9.226243  
     206A      9.289947   207A      9.289969   208A      9.449941  
     209A      9.456982   210A      9.457003   211A      9.487722  
     212A      9.783157   213A      9.828836   214A      9.828890  
     215A      9.944836   216A     10.097450   217A     10.097468  
     218A     10.206511   219A     10.378346   220A     10.378354  
     221A     10.659349   222A     10.804203   223A     10.804217  
     224A     11.077417   225A     11.077439   226A     11.197885  
     227A     11.842148   228A     11.842181   229A     12.070967  
     230A     12.258137   231A     12.258137   232A     12.260816  
     233A     12.261012   234A     12.345820   235A     12.345852  
     236A     12.387854   237A     12.387860   238A     12.668128  
     239A     12.800455   240A     13.681529   241A     13.885369  
     242A     13.885386   243A     14.192839   244A     14.290641  
     245A     14.290656   246A     14.588179   247A     14.588208  
     248A     14.640594   249A     14.894805   250A     16.106000  
     251A     18.293019   252A     18.293099   253A     25.596136  
     254A     40.339624   255A     40.339624   256A     40.496519  
     257A     70.369891   258A     79.190871   259A    318.779095  

    Final Occupation by Irrep:
              A 
    DOCC [    13 ]
    NA   [    13 ]
    NB   [    13 ]

  @DF-RHF Final Energy:  -297.23814676916015

   => Energetics <=

    Nuclear Repulsion Energy =              7.6504382792901735
    One-Electron Energy =                -533.3786586141363841
    Two-Electron Energy =                 228.4900735656861173
    Total Energy =                       -297.2381467691601529

Computation Completed


Properties will be evaluated at   0.000000,   0.000000,   0.000000 [a0]

Properties computed using the SCF density matrix


 Multipole Moments:

 ------------------------------------------------------------------------------------
     Multipole            Electronic (a.u.)      Nuclear  (a.u.)        Total (a.u.)
 ------------------------------------------------------------------------------------

 L = 1.  Multiply by 2.5417464519 to convert [e a0] to [Debye]
 Dipole X            :         -1.4081251            1.3905059           -0.0176192
 Dipole Y            :          1.4168970           -1.3991728            0.0177243
 Dipole Z            :         16.5803107          -16.3729823            0.2073284
 Magnitude           :                                                    0.2088292

 ------------------------------------------------------------------------------------

*** tstop() called on cmpsrv002 at Thu Sep 19 13:57:56 2024
Module time:
	user time   =      14.29 seconds =       0.24 minutes
	system time =       1.62 seconds =       0.03 minutes
	total time  =         18 seconds =       0.30 minutes
Total time:
	user time   =      26.90 seconds =       0.45 minutes
	system time =       3.25 seconds =       0.05 minutes
	total time  =         32 seconds =       0.53 minutes
   => Libint2 <=

    Primary   basis highest AM E, G, H:  6, 6, 3
    Auxiliary basis highest AM E, G, H:  7, 7, 4
    Onebody   basis highest AM E, G, H:  -, -, -
    Solid Harmonics ordering:            Gaussian

*** tstart() called on cmpsrv002
*** at Thu Sep 19 13:57:56 2024

   => Loading Basis Set <=

    Name: THIS_BASIS
    Role: ORBITAL
    Keyword: BASIS
    atoms 1, 4-6 entry H          line    15 file /home/vance/anaconda3/envs/p4env/share/psi4/basis/def2-qzvpp.gbs 
    atoms 2      entry I          line  3401 (ECP: line  4988) file /home/vance/anaconda3/envs/p4env/share/psi4/basis/def2-qzvpp.gbs 
    atoms 3      entry N          line   242 file /home/vance/anaconda3/envs/p4env/share/psi4/basis/def2-qzvpp.gbs 

    !!!  WARNING: ECP capability is in beta. Please check occupations closely.  !!!


         ---------------------------------------------------------
                       SAPT(DFT): delta HF Monomer B               
         ---------------------------------------------------------
                                   SCF
               by Justin Turney, Rob Parrish, Andy Simmonett
                          and Daniel G. A. Smith
                              RHF Reference
                        4 Threads,   7629 MiB Core
         ---------------------------------------------------------

  ==> Geometry <==

    Molecular point group: c1
    Full point group: C1

    Geometry (in Angstrom), charge = 0, multiplicity = 1:

       Center              X                  Y                   Z               Mass       
    ------------   -----------------  -----------------  -----------------  -----------------
      Gh(H)          -0.111987536761     0.112647678888     1.317540033611     1.007825032230
      Gh(I)           0.033912463239    -0.034122321112    -0.399269966389   126.904471900000
         N           -0.240957536761     0.242447678888     2.836880033611    14.003074004430
         H            0.049102463239    -0.618132321112     3.283560033611     1.007825032230
         H            0.343042463239     0.998707678888     3.170480033611     1.007825032230
         H           -1.202437536761     0.434777678888     3.087550033611     1.007825032230

  Running in c1 symmetry.

  Rotational constants: A =      6.16453  B =      0.09973  C =      0.09973 [cm^-1]
  Rotational constants: A = 184807.96893  B =   2989.93783  C =   2989.93736 [MHz]
  Nuclear repulsion =   11.944047633723619

  Charge       = 0
  Multiplicity = 1
  Electrons    = 10
  Nalpha       = 5
  Nbeta        = 5

  ==> Algorithm <==

  SCF Algorithm Type is DF.
  DIIS enabled.
  MOM disabled.
  Fractional occupation disabled.
  Guess Type is SAD.
  Energy threshold   = 1.00e-08
  Density threshold  = 1.00e-08
  Integral threshold = 1.00e-12

  ==> Primary Basis <==

  Basis Set: THIS_BASIS
    Blend: DEF2-QZVPP
    Number of shells: 79
    Number of basis functions: 259
    Number of Cartesian functions: 316
    Spherical Harmonics?: true
    Max angular momentum: 4

  Core potential: THIS_BASIS
    Number of shells: 4
    Number of ECP primitives: 29
    Number of ECP core electrons: 0
    Max angular momentum: 3

   => Loading Basis Set <=

    Name: (THIS_BASIS AUX)
    Role: JKFIT
    Keyword: DF_BASIS_SCF
    atoms 1, 4-6 entry H          line    18 file /home/vance/anaconda3/envs/p4env/share/psi4/basis/def2-universal-jkfit.gbs 
    atoms 2      entry I          line  4980 file /home/vance/anaconda3/envs/p4env/share/psi4/basis/def2-universal-jkfit.gbs 
    atoms 3      entry N          line   258 file /home/vance/anaconda3/envs/p4env/share/psi4/basis/def2-universal-jkfit.gbs 

  ==> Integral Setup <==

  ==> DiskDFJK: Density-Fitted J/K Matrices <==

    J tasked:                  Yes
    K tasked:                  Yes
    wK tasked:                  No
    OpenMP threads:              4
    Integrals threads:           4
    Memory [MiB]:             5722
    Algorithm:                Core
    Integral Cache:           SAVE
    Schwarz Cutoff:          1E-12
    Fitting Condition:       1E-10

   => Auxiliary Basis Set <=

  Basis Set: (THIS_BASIS AUX)
    Blend: DEF2-UNIVERSAL-JKFIT
    Number of shells: 95
    Number of basis functions: 367
    Number of Cartesian functions: 482
    Spherical Harmonics?: true
    Max angular momentum: 5

  Minimum eigenvalue in the overlap matrix is 1.0046494968E-04.
  Reciprocal condition number of the overlap matrix is 1.1586226181E-05.
    Using symmetric orthogonalization.

  ==> Pre-Iterations <==

  SCF Guess: Superposition of Atomic Densities via on-the-fly atomic UHF (no occupation information).

   -------------------------
    Irrep   Nso     Nmo    
   -------------------------
     A        259     259 
   -------------------------
    Total     259     259
   -------------------------

  ==> Iterations <==

                           Total Energy        Delta E     RMS |[F,P]|

   @DF-RHF iter SAD:   -55.65009326205484   -5.56501e+01   0.00000e+00 
   @DF-RHF iter   1:   -56.13000313939146   -4.79910e-01   1.77361e-03 DIIS/ADIIS
   @DF-RHF iter   2:   -56.19686753320823   -6.68644e-02   1.02249e-03 DIIS/ADIIS
   @DF-RHF iter   3:   -56.22372567222402   -2.68581e-02   9.46888e-05 DIIS
   @DF-RHF iter   4:   -56.22435206228029   -6.26390e-04   1.75517e-05 DIIS
   @DF-RHF iter   5:   -56.22437244275292   -2.03805e-05   3.27102e-06 DIIS
   @DF-RHF iter   6:   -56.22437365164578   -1.20889e-06   8.46163e-07 DIIS
   @DF-RHF iter   7:   -56.22437373707557   -8.54298e-08   1.87637e-07 DIIS
   @DF-RHF iter   8:   -56.22437374159107   -4.51550e-09   2.97267e-08 DIIS
   @DF-RHF iter   9:   -56.22437374170308   -1.12017e-10   8.37987e-09 DIIS
  Energy and wave function converged.


  ==> Post-Iterations <==

    Orbital Energies [Eh]
    ---------------------

    Doubly Occupied:                                                      

       1A    -15.538040     2A     -1.137947     3A     -0.631738  
       4A     -0.631734     5A     -0.422822  

    Virtual:                                                              

       6A      0.093268     7A      0.110003     8A      0.139818  
       9A      0.139818    10A      0.170367    11A      0.170370  
      12A      0.187515    13A      0.313329    14A      0.313331  
      15A      0.315619    16A      0.350412    17A      0.425747  
      18A      0.425749    19A      0.435930    20A      0.450932  
      21A      0.450951    22A      0.501619    23A      0.510642  
      24A      0.510643    25A      0.528010    26A      0.529116  
      27A      0.529119    28A      0.591445    29A      0.591456  
      30A      0.655952    31A      0.746454    32A      0.867505  
      33A      0.886078    34A      0.886110    35A      0.889950  
      36A      0.931078    37A      0.931083    38A      0.982342  
      39A      1.031350    40A      1.031354    41A      1.054311  
      42A      1.054789    43A      1.098708    44A      1.098730  
      45A      1.120063    46A      1.120083    47A      1.170072  
      48A      1.229805    49A      1.255084    50A      1.255097  
      51A      1.321974    52A      1.332853    53A      1.341964  
      54A      1.341967    55A      1.364511    56A      1.364514  
      57A      1.367426    58A      1.399968    59A      1.399980  
      60A      1.409402    61A      1.409405    62A      1.430487  
      63A      1.609204    64A      1.612922    65A      1.612943  
      66A      1.774918    67A      1.944969    68A      1.944992  
      69A      2.028926    70A      2.191183    71A      2.238970  
      72A      2.238993    73A      2.323067    74A      2.323090  
      75A      2.341044    76A      2.394876    77A      2.484541  
      78A      2.484545    79A      2.575009    80A      2.575019  
      81A      2.614843    82A      2.614847    83A      2.624576  
      84A      2.625060    85A      2.625060    86A      2.626428  
      87A      2.627545    88A      2.644019    89A      2.644045  
      90A      2.756523    91A      2.781986    92A      2.782030  
      93A      2.888064    94A      2.910324    95A      2.910325  
      96A      2.920394    97A      2.948444    98A      2.948482  
      99A      3.051788   100A      3.160187   101A      3.160218  
     102A      3.179197   103A      3.180744   104A      3.185720  
     105A      3.185731   106A      3.204791   107A      3.204809  
     108A      3.223447   109A      3.239613   110A      3.239642  
     111A      3.257810   112A      3.291118   113A      3.298333  
     114A      3.298363   115A      3.350159   116A      3.419940  
     117A      3.419940   118A      3.476203   119A      3.542567  
     120A      3.542572   121A      3.564874   122A      3.564898  
     123A      3.580823   124A      3.658235   125A      3.658240  
     126A      3.726205   127A      3.899025   128A      3.980860  
     129A      3.980878   130A      4.117310   131A      4.199683  
     132A      4.248307   133A      4.248345   134A      4.395837  
     135A      4.395871   136A      4.502462   137A      4.660480  
     138A      4.660493   139A      4.690282   140A      4.871594  
     141A      5.480943   142A      5.480984   143A      5.568110  
     144A      6.159926   145A      6.159933   146A      6.269894  
     147A      6.269908   148A      6.319088   149A      6.373319  
     150A      6.379146   151A      6.385581   152A      6.385603  
     153A      6.493441   154A      6.577175   155A      6.577189  
     156A      6.780911   157A      6.960814   158A      6.979035  
     159A      6.979112   160A      7.069494   161A      7.069497  
     162A      7.268953   163A      7.404044   164A      7.435649  
     165A      7.435682   166A      7.621119   167A      7.621138  
     168A      7.676863   169A      7.686961   170A      7.687009  
     171A      7.796970   172A      7.797046   173A      7.806795  
     174A      8.045110   175A      8.045151   176A      8.055880  
     177A      8.166449   178A      8.166461   179A      8.184343  
     180A      8.307998   181A      8.404150   182A      8.421676  
     183A      8.421695   184A      8.526846   185A      8.585015  
     186A      8.585050   187A      8.662927   188A      8.680061  
     189A      8.791074   190A      8.808084   191A      8.808116  
     192A      8.922871   193A      8.922878   194A      8.986503  
     195A      8.986513   196A      9.085584   197A      9.085591  
     198A      9.117626   199A      9.295923   200A      9.295976  
     201A      9.332064   202A      9.555209   203A      9.555224  
     204A      9.727048   205A      9.727055   206A      9.851356  
     207A     10.069869   208A     10.108945   209A     10.110642  
     210A     10.110680   211A     10.218622   212A     10.218641  
     213A     10.317965   214A     10.320385   215A     10.553145  
     216A     10.553152   217A     10.596188   218A     10.596407  
     219A     10.604874   220A     10.604875   221A     10.698735  
     222A     10.801000   223A     10.801002   224A     11.112518  
     225A     11.654199   226A     11.658468   227A     11.728816  
     228A     11.728846   229A     12.156636   230A     12.158284  
     231A     12.158301   232A     12.353464   233A     12.353494  
     234A     12.471733   235A     13.859068   236A     13.859069  
     237A     14.629918   238A     14.694681   239A     14.694683  
     240A     14.769378   241A     14.769391   242A     14.901327  
     243A     14.901345   244A     15.409620   245A     15.787564  
     246A     32.654886   247A     32.655000   248A     32.657857  
     249A     32.657857   250A     32.724946   251A     32.724947  
     252A     32.884841   253A     36.441729   254A     39.531045  
     255A     91.300590   256A     91.300590   257A     91.386666  
     258A    168.226234   259A    200.674997  

    Final Occupation by Irrep:
              A 
    DOCC [     5 ]
    NA   [     5 ]
    NB   [     5 ]

  @DF-RHF Final Energy:   -56.22437374170308

   => Energetics <=

    Nuclear Repulsion Energy =             11.9440476337236188
    One-Electron Energy =                 -99.6122804806349080
    Two-Electron Energy =                  31.4438591052082153
    Total Energy =                        -56.2243737417030758

Computation Completed


Properties will be evaluated at   0.000000,   0.000000,   0.000000 [a0]

Properties computed using the SCF density matrix


 Multipole Moments:

 ------------------------------------------------------------------------------------
     Multipole            Electronic (a.u.)      Nuclear  (a.u.)        Total (a.u.)
 ------------------------------------------------------------------------------------

 L = 1.  Multiply by 2.5417464519 to convert [e a0] to [Debye]
 Dipole X            :          4.6685779           -4.7186374           -0.0500595
 Dipole Y            :         -4.6975214            4.7479119            0.0503906
 Dipole Z            :        -54.9671486           55.5574763            0.5903277
 Magnitude           :                                                    0.5945856

 ------------------------------------------------------------------------------------

*** tstop() called on cmpsrv002 at Thu Sep 19 13:58:19 2024
Module time:
	user time   =      15.23 seconds =       0.25 minutes
	system time =       1.85 seconds =       0.03 minutes
	total time  =         23 seconds =       0.38 minutes
Total time:
	user time   =      42.15 seconds =       0.70 minutes
	system time =       5.11 seconds =       0.09 minutes
	total time  =         55 seconds =       0.92 minutes

         ---------------------------------------------------------
                        SAPT(DFT): delta HF Segment                

                   by Daniel G. A. Smith and Rob Parrish           
         ---------------------------------------------------------


  ==> Preparing SAPT Data Cache <== 

  ==> DiskDFJK: Density-Fitted J/K Matrices <==

    J tasked:                  Yes
    K tasked:                  Yes
    wK tasked:                  No
    OpenMP threads:              4
    Integrals threads:           4
    Memory [MiB]:             5722
    Algorithm:                Core
    Integral Cache:           SAVE
    Schwarz Cutoff:          1E-12
    Fitting Condition:       1E-10

   => Auxiliary Basis Set <=

  Basis Set: (THIS_BASIS AUX)
    Blend: DEF2-UNIVERSAL-JKFIT
    Number of shells: 95
    Number of basis functions: 367
    Number of Cartesian functions: 482
    Spherical Harmonics?: true
    Max angular momentum: 5


  ==> E10 Electostatics <== 

    Elst10,r                        -52.68376055 [mEh]

  ==> E10 Exchange <== 

    Exch10(S^2)                      90.22884770 [mEh]
    Exch10                           97.26772149 [mEh]

  ==> E20 Induction <== 

   => Uncoupled Induction <= 

    Ind20,u (A<-B)                  -22.03994428 [mEh]
    Ind20,u (A->B)                  -15.37083459 [mEh]
    Ind20,u                         -37.41077886 [mEh]
    Exch-Ind20,u (A<-B)              15.91704960 [mEh]
    Exch-Ind20,u (A->B)               3.52922093 [mEh]
    Exch-Ind20,u                     19.44627053 [mEh]
    Exch-Ind20,u (A<-B) (S^inf)      18.65033709 [mEh]
    Exch-Ind20,u (A->B) (S^inf)       5.14273103 [mEh]
    Exch-Ind20,u (S^inf)             23.79306812 [mEh]

   => Coupled Induction <= 

   ---------------------------------------------------
              SAPT Coupled Induction Solver           
   ---------------------------------------------------
    Maxiter             =          20
    Convergence         =   1.000E-06
   ---------------------------------------------------
     Iter       (A<-B)           (B->A)      Time [s]
   ---------------------------------------------------
    Guess    1.353972e-01     1.863671e-01          1
        1    7.175152e-02     4.820899e-02          3
        2    8.981485e-03     1.276263e-02          5
        3    2.528725e-03     4.120383e-03          6
        4    5.834449e-04     8.092466e-04          7
        5    1.851509e-04     1.457664e-04          8
        6    3.745893e-05     2.105494e-05          9
        7    6.251265e-06     3.531813e-06         11
        8    8.079329e-07*    7.171815e-07*        12
   ---------------------------------------------------

    Ind20,r (A<-B)                  -26.05420660 [mEh]
    Ind20,r (A->B)                  -19.71364915 [mEh]
    Ind20,r                         -45.76785575 [mEh]
    Exch-Ind20,r (A<-B)              19.69761735 [mEh]
    Exch-Ind20,r (A->B)               5.59103500 [mEh]
    Exch-Ind20,r                     25.28865234 [mEh]
    Exch-Ind20,r (A<-B) (S^inf)      23.16360732 [mEh]
    Exch-Ind20,r (A->B) (S^inf)       8.00155855 [mEh]
    Exch-Ind20,r (S^inf)             31.16516587 [mEh]

   Partial SAPT(HF) Results, to compute Delta HF (dHF)
  ---------------------------------------------------------------------------------------------------------
    Electrostatics                  -52.68376055 [mEh]    -33.05955886 [kcal/mol]   -138.32119426 [kJ/mol]
      Elst10,r                      -52.68376055 [mEh]    -33.05955886 [kcal/mol]   -138.32119426 [kJ/mol]

    Exchange                         97.26772149 [mEh]     61.03641673 [kcal/mol]    255.37636760 [kJ/mol]
      Exch10                         97.26772149 [mEh]     61.03641673 [kcal/mol]    255.37636760 [kJ/mol]
      Exch10(S^2)                    90.22884770 [mEh]     56.61945674 [kcal/mol]    236.89580701 [kJ/mol]

    Induction (no dHF)              -20.47920340 [mEh]    -12.85089415 [kcal/mol]    -53.76814113 [kJ/mol]
      Ind20,r                       -45.76785575 [mEh]    -28.71976307 [kcal/mol]   -120.16348870 [kJ/mol]
      Exch-Ind20,r                   25.28865234 [mEh]     15.86886892 [kcal/mol]     66.39534757 [kJ/mol]
      Induction (A<-B) (no dHF)      -6.35658925 [mEh]     -3.98881998 [kcal/mol]    -16.68922279 [kJ/mol]
      Induction (A->B) (no dHF)     -14.12261415 [mEh]     -8.86207417 [kcal/mol]    -37.07891834 [kJ/mol]

    Subtotal SAPT(HF)                24.10475754 [mEh]     15.12596372 [kcal/mol]     63.28703221 [kJ/mol]
    Total HF                         -3.36177906 [mEh]     -2.10954821 [kcal/mol]     -8.82634971 [kJ/mol]
    Delta HF                        -27.46653660 [mEh]    -17.23551193 [kcal/mol]    -72.11338192 [kJ/mol]
  ---------------------------------------------------------------------------------------------------------
   Partial SAPT(HF) Results, alternate SAPT0-like display
  ---------------------------------------------------------------------------------------------------------
    Induction                       -47.94574001 [mEh]    -30.08640608 [kcal/mol]   -125.88152305 [kJ/mol]
      Ind20,r                       -45.76785575 [mEh]    -28.71976307 [kcal/mol]   -120.16348870 [kJ/mol]
      Exch-Ind20,r                   25.28865234 [mEh]     15.86886892 [kcal/mol]     66.39534757 [kJ/mol]
      delta HF,r (2)                -27.46653660 [mEh]    -17.23551193 [kcal/mol]    -72.11338192 [kJ/mol]
      Induction (A<-B)              -14.88199368 [mEh]     -9.33859203 [kcal/mol]    -39.07266903 [kJ/mol]
      Induction (A->B)              -33.06374632 [mEh]    -20.74781406 [kcal/mol]    -86.80885401 [kJ/mol]
  ---------------------------------------------------------------------------------------------------------
   => Libint2 <=

    Primary   basis highest AM E, G, H:  6, 6, 3
    Auxiliary basis highest AM E, G, H:  7, 7, 4
    Onebody   basis highest AM E, G, H:  -, -, -
    Solid Harmonics ordering:            Gaussian

*** tstart() called on cmpsrv002
*** at Thu Sep 19 13:58:44 2024

   => Loading Basis Set <=

    Name: THIS_BASIS
    Role: ORBITAL
    Keyword: BASIS
    atoms 1, 4-6 entry H          line    15 file /home/vance/anaconda3/envs/p4env/share/psi4/basis/def2-qzvpp.gbs 
    atoms 2      entry I          line  3401 (ECP: line  4988) file /home/vance/anaconda3/envs/p4env/share/psi4/basis/def2-qzvpp.gbs 
    atoms 3      entry N          line   242 file /home/vance/anaconda3/envs/p4env/share/psi4/basis/def2-qzvpp.gbs 

    !!!  WARNING: ECP capability is in beta. Please check occupations closely.  !!!


         ---------------------------------------------------------
                          SAPT(DFT): DFT Monomer A                 
         ---------------------------------------------------------
                                   SCF
               by Justin Turney, Rob Parrish, Andy Simmonett
                          and Daniel G. A. Smith
                              RKS Reference
                        4 Threads,   7629 MiB Core
         ---------------------------------------------------------

  ==> Geometry <==

    Molecular point group: c1
    Full point group: C1

    Geometry (in Angstrom), charge = 0, multiplicity = 1:

       Center              X                  Y                   Z               Mass       
    ------------   -----------------  -----------------  -----------------  -----------------
         H           -0.111987536761     0.112647678888     1.317540033611     1.007825032230
         I            0.033912463239    -0.034122321112    -0.399269966389   126.904471900000
      Gh(N)          -0.240957536761     0.242447678888     2.836880033611    14.003074004430
      Gh(H)           0.049102463239    -0.618132321112     3.283560033611     1.007825032230
      Gh(H)           0.343042463239     0.998707678888     3.170480033611     1.007825032230
      Gh(H)          -1.202437536761     0.434777678888     3.087550033611     1.007825032230

  Running in c1 symmetry.

  Rotational constants: A =      6.16453  B =      0.09973  C =      0.09973 [cm^-1]
  Rotational constants: A = 184807.96893  B =   2989.93783  C =   2989.93736 [MHz]
  Nuclear repulsion =    7.650438279290174

  Charge       = 0
  Multiplicity = 1
  Electrons    = 26
  Nalpha       = 13
  Nbeta        = 13

  ==> Algorithm <==

  SCF Algorithm Type is DF.
  DIIS enabled.
  MOM disabled.
  Fractional occupation disabled.
  Guess Type is SAD.
  Energy threshold   = 1.00e-08
  Density threshold  = 1.00e-08
  Integral threshold = 1.00e-12

  ==> Primary Basis <==

  Basis Set: THIS_BASIS
    Blend: DEF2-QZVPP
    Number of shells: 79
    Number of basis functions: 259
    Number of Cartesian functions: 316
    Spherical Harmonics?: true
    Max angular momentum: 4

  Core potential: THIS_BASIS
    Number of shells: 4
    Number of ECP primitives: 29
    Number of ECP core electrons: 28
    Max angular momentum: 3

  ==> DFT Potential <==

   => LibXC <=

    Version 6.2.2
    S. Lehtola, C. Steigemann, M. J.T. Oliveira, and M. A.L. Marques.,  SoftwareX 7, 15 (2018) (10.1016/j.softx.2017.11.002)

   => Composite Functional: PBE0 <= 

    PBE0 Hyb-GGA Exchange-Correlation Functional

    C. Adamo and V. Barone.,  J. Chem. Phys. 110, 6158 (1999) (10.1063/1.478522)
    M. Ernzerhof and G. E. Scuseria.,  J. Chem. Phys. 110, 5029 (1999) (10.1063/1.478401)

    Deriv               =              1
    GGA                 =           TRUE
    Meta                =          FALSE

    Exchange Hybrid     =           TRUE
    MP2 Hybrid          =          FALSE

   => Exchange Functionals <=

    0.7500   Perdew, Burke & Ernzerhof

   => Exact (HF) Exchange <=

    0.2500               HF 

   => Correlation Functionals <=

    1.0000   Perdew, Burke & Ernzerhof

   => LibXC Density Thresholds  <==

    XC_HYB_GGA_XC_PBEH:  1.00E-15 

   => Asymptotic Correction <=

    X Functional        =    XC_GGA_X_LB
    C Functional        =   XC_LDA_C_VWN
    Bulk Shift          =       0.094577
    GRAC Alpha          =       0.500000
    GRAC Beta           =      40.000000

   => Molecular Quadrature <=

    Radial Scheme          =       TREUTLER
    Pruning Scheme         =           NONE
    Nuclear Scheme         =       TREUTLER

    Blocking Scheme        =         OCTREE
    BS radius alpha        =              1
    Pruning alpha          =              1
    Radial Points          =             75
    Spherical Points       =            302
    Total Points           =         130155
    Total Blocks           =           1028
    Max Points             =            256
    Max Functions          =            250
    Weights Tolerance      =       1.00E-15

   => Loading Basis Set <=

    Name: (THIS_BASIS AUX)
    Role: JKFIT
    Keyword: DF_BASIS_SCF
    atoms 1, 4-6 entry H          line    18 file /home/vance/anaconda3/envs/p4env/share/psi4/basis/def2-universal-jkfit.gbs 
    atoms 2      entry I          line  4980 file /home/vance/anaconda3/envs/p4env/share/psi4/basis/def2-universal-jkfit.gbs 
    atoms 3      entry N          line   258 file /home/vance/anaconda3/envs/p4env/share/psi4/basis/def2-universal-jkfit.gbs 

  ==> Integral Setup <==

  ==> DiskDFJK: Density-Fitted J/K Matrices <==

    J tasked:                  Yes
    K tasked:                  Yes
    wK tasked:                  No
    OpenMP threads:              4
    Integrals threads:           4
    Memory [MiB]:             4932
    Algorithm:                Core
    Integral Cache:           SAVE
    Schwarz Cutoff:          1E-12
    Fitting Condition:       1E-10

   => Auxiliary Basis Set <=

  Basis Set: (THIS_BASIS AUX)
    Blend: DEF2-UNIVERSAL-JKFIT
    Number of shells: 95
    Number of basis functions: 367
    Number of Cartesian functions: 482
    Spherical Harmonics?: true
    Max angular momentum: 5

  Cached 100.0% of DFT collocation blocks in 0.772 [GiB].

  Minimum eigenvalue in the overlap matrix is 1.0046494968E-04.
  Reciprocal condition number of the overlap matrix is 1.1586226181E-05.
    Using symmetric orthogonalization.

  ==> Pre-Iterations <==

  SCF Guess: Superposition of Atomic Densities via on-the-fly atomic UHF (no occupation information).

   -------------------------
    Irrep   Nso     Nmo    
   -------------------------
     A        259     259 
   -------------------------
    Total     259     259
   -------------------------

  ==> Iterations <==

                           Total Energy        Delta E     RMS |[F,P]|

   @DF-RKS iter SAD:  -295.72228648891377   -2.95722e+02   0.00000e+00 
   @DF-RKS iter   1:  -297.78593225889330   -2.06365e+00   4.28335e-03 DIIS/ADIIS
   @DF-RKS iter   2:  -297.78371967991956    2.21258e-03   4.67851e-03 DIIS/ADIIS
   @DF-RKS iter   3:  -298.30862391178118   -5.24904e-01   5.02893e-04 DIIS/ADIIS
   @DF-RKS iter   4:  -298.31068146141172   -2.05755e-03   4.65996e-04 DIIS/ADIIS
   @DF-RKS iter   5:  -298.31510607799237   -4.42462e-03   2.66165e-05 DIIS
   @DF-RKS iter   6:  -298.31513508064455   -2.90027e-05   8.78686e-06 DIIS
   @DF-RKS iter   7:  -298.31513854436213   -3.46372e-06   3.96525e-07 DIIS
   @DF-RKS iter   8:  -298.31513848347294    6.08892e-08   6.39279e-08 DIIS
   @DF-RKS iter   9:  -298.31513848810545   -4.63251e-09   3.53782e-08 DIIS
   @DF-RKS iter  10:  -298.31513848800557    9.98739e-11   7.58173e-09 DIIS
  Energy and wave function converged.


  ==> Post-Iterations <==

   Electrons on quadrature grid:
      Ntotal   =   25.9999992001 ; deviation = -7.999e-07 

    Orbital Energies [Eh]
    ---------------------

    Doubly Occupied:                                                      

       1A     -7.006239     2A     -5.021190     3A     -5.009445  
       4A     -5.009445     5A     -2.048221     6A     -2.044184  
       7A     -2.044184     8A     -2.034069     9A     -2.034069  
      10A     -0.817463    11A     -0.505686    12A     -0.385871  
      13A     -0.385871  

    Virtual:                                                              

      14A     -0.150855    15A     -0.036557    16A     -0.005398  
      17A      0.004092    18A      0.004096    19A      0.045057  
      20A      0.045057    21A      0.055314    22A      0.077389  
      23A      0.077392    24A      0.097883    25A      0.097892  
      26A      0.172964    27A      0.181420    28A      0.209662  
      29A      0.209672    30A      0.263162    31A      0.366958  
      32A      0.394817    33A      0.394842    34A      0.427237  
      35A      0.427241    36A      0.505037    37A      0.505039  
      38A      0.516766    39A      0.518492    40A      0.522637  
      41A      0.558928    42A      0.558932    43A      0.598829  
      44A      0.636085    45A      0.682861    46A      0.682862  
      47A      0.698018    48A      0.698019    49A      0.709925  
      50A      0.709932    51A      0.737868    52A      0.783062  
      53A      0.783067    54A      0.786483    55A      0.820397  
      56A      0.863889    57A      0.874769    58A      0.874806  
      59A      0.909057    60A      0.965584    61A      0.965612  
      62A      1.064204    63A      1.085183    64A      1.085189  
      65A      1.117922    66A      1.166330    67A      1.166340  
      68A      1.167862    69A      1.168034    70A      1.189432  
      71A      1.189443    72A      1.233738    73A      1.233750  
      74A      1.296217    75A      1.331138    76A      1.421385  
      77A      1.421389    78A      1.460291    79A      1.612327  
      80A      1.612328    81A      1.733930    82A      1.734436  
      83A      1.744774    84A      1.744774    85A      1.747419  
      86A      1.887176    87A      1.887181    88A      1.942932  
      89A      2.002428    90A      2.049142    91A      2.049160  
      92A      2.169374    93A      2.169395    94A      2.225394  
      95A      2.225407    96A      2.333775    97A      2.336011  
      98A      2.388230    99A      2.388244   100A      2.409072  
     101A      2.409076   102A      2.479703   103A      2.479709  
     104A      2.506519   105A      2.506545   106A      2.543107  
     107A      2.619613   108A      2.628863   109A      2.628910  
     110A      2.707851   111A      2.724142   112A      2.724151  
     113A      2.746909   114A      2.754425   115A      2.754427  
     116A      2.860174   117A      2.860200   118A      2.883106  
     119A      2.920548   120A      2.920643   121A      2.957171  
     122A      2.976458   123A      2.999939   124A      2.999942  
     125A      3.080741   126A      3.169870   127A      3.169873  
     128A      3.172338   129A      3.173295   130A      3.269007  
     131A      3.269025   132A      3.283102   133A      3.283870  
     134A      3.318163   135A      3.318175   136A      3.374093  
     137A      3.577383   138A      3.577395   139A      3.636581  
     140A      3.636597   141A      3.660674   142A      3.793196  
     143A      4.072355   144A      4.072398   145A      4.186773  
     146A      4.219408   147A      4.289953   148A      4.371285  
     149A      4.371311   150A      4.632301   151A      4.891901  
     152A      4.891909   153A      5.278702   154A      5.674708  
     155A      5.688305   156A      5.771437   157A      5.771455  
     158A      5.928046   159A      5.928059   160A      6.139015  
     161A      6.199898   162A      6.199931   163A      6.333530  
     164A      6.333535   165A      6.406208   166A      6.522060  
     167A      6.522072   168A      6.829393   169A      6.829517  
     170A      6.876148   171A      6.937350   172A      7.064326  
     173A      7.064358   174A      7.237789   175A      7.403086  
     176A      7.403120   177A      7.511123   178A      7.567638  
     179A      7.624780   180A      7.624798   181A      7.794091  
     182A      7.794148   183A      7.817286   184A      7.910722  
     185A      7.910807   186A      7.975333   187A      8.078893  
     188A      8.078939   189A      8.189657   190A      8.350450  
     191A      8.350459   192A      8.449918   193A      8.486238  
     194A      8.486250   195A      8.530546   196A      8.530564  
     197A      8.597733   198A      8.653916   199A      8.660696  
     200A      8.660701   201A      8.835138   202A      8.895897  
     203A      8.895906   204A      8.923211   205A      9.057243  
     206A      9.109688   207A      9.109704   208A      9.130697  
     209A      9.292431   210A      9.292447   211A      9.340601  
     212A      9.593144   213A      9.661524   214A      9.661568  
     215A      9.780146   216A      9.929170   217A      9.929187  
     218A     10.016657   219A     10.215134   220A     10.215142  
     221A     10.399102   222A     10.633329   223A     10.633340  
     224A     10.906109   225A     10.906133   226A     11.029898  
     227A     11.330273   228A     11.330274   229A     11.331846  
     230A     11.332064   231A     11.451972   232A     11.451974  
     233A     11.679650   234A     11.690398   235A     11.690431  
     236A     11.973243   237A     12.191591   238A     12.191628  
     239A     12.624296   240A     13.523974   241A     13.722230  
     242A     13.722246   243A     14.025792   244A     14.121661  
     245A     14.121674   246A     14.134948   247A     14.424922  
     248A     14.424951   249A     14.475341   250A     15.942577  
     251A     18.131205   252A     18.131285   253A     25.422261  
     254A     39.531203   255A     39.531203   256A     39.689960  
     257A     70.194210   258A     78.474572   259A    318.602906  

    Final Occupation by Irrep:
              A 
    DOCC [    13 ]
    NA   [    13 ]
    NB   [    13 ]

  @DF-RKS Final Energy:  -298.31513848800557

   => Energetics <=

    Nuclear Repulsion Energy =              7.6504382792901735
    One-Electron Energy =                -533.7190029036900114
    Two-Electron Energy =                 244.9375118280882475
    DFT Exchange-Correlation Energy =     -17.1840856916939799
    Empirical Dispersion Energy =           0.0000000000000000
    VV10 Nonlocal Energy =                  0.0000000000000000
    Total Energy =                       -298.3151384880055730

Computation Completed


Properties will be evaluated at   0.000000,   0.000000,   0.000000 [a0]

Properties computed using the SCF density matrix


 Multipole Moments:

 ------------------------------------------------------------------------------------
     Multipole            Electronic (a.u.)      Nuclear  (a.u.)        Total (a.u.)
 ------------------------------------------------------------------------------------

 L = 1.  Multiply by 2.5417464519 to convert [e a0] to [Debye]
 Dipole X            :         -1.4061482            1.3905059           -0.0156423
 Dipole Y            :          1.4149046           -1.3991728            0.0157318
 Dipole Z            :         16.5570210          -16.3729823            0.1840387
 Magnitude           :                                                    0.1853710

 ------------------------------------------------------------------------------------

*** tstop() called on cmpsrv002 at Thu Sep 19 13:59:41 2024
Module time:
	user time   =      44.68 seconds =       0.74 minutes
	system time =       2.61 seconds =       0.04 minutes
	total time  =         57 seconds =       0.95 minutes
Total time:
	user time   =     109.46 seconds =       1.82 minutes
	system time =       8.44 seconds =       0.14 minutes
	total time  =        137 seconds =       2.28 minutes
   => Libint2 <=

    Primary   basis highest AM E, G, H:  6, 6, 3
    Auxiliary basis highest AM E, G, H:  7, 7, 4
    Onebody   basis highest AM E, G, H:  -, -, -
    Solid Harmonics ordering:            Gaussian

*** tstart() called on cmpsrv002
*** at Thu Sep 19 13:59:41 2024

   => Loading Basis Set <=

    Name: THIS_BASIS
    Role: ORBITAL
    Keyword: BASIS
    atoms 1, 4-6 entry H          line    15 file /home/vance/anaconda3/envs/p4env/share/psi4/basis/def2-qzvpp.gbs 
    atoms 2      entry I          line  3401 (ECP: line  4988) file /home/vance/anaconda3/envs/p4env/share/psi4/basis/def2-qzvpp.gbs 
    atoms 3      entry N          line   242 file /home/vance/anaconda3/envs/p4env/share/psi4/basis/def2-qzvpp.gbs 

    !!!  WARNING: ECP capability is in beta. Please check occupations closely.  !!!


         ---------------------------------------------------------
                          SAPT(DFT): DFT Monomer B                 
         ---------------------------------------------------------
                                   SCF
               by Justin Turney, Rob Parrish, Andy Simmonett
                          and Daniel G. A. Smith
                              RKS Reference
                        4 Threads,   7629 MiB Core
         ---------------------------------------------------------

  ==> Geometry <==

    Molecular point group: c1
    Full point group: C1

    Geometry (in Angstrom), charge = 0, multiplicity = 1:

       Center              X                  Y                   Z               Mass       
    ------------   -----------------  -----------------  -----------------  -----------------
      Gh(H)          -0.111987536761     0.112647678888     1.317540033611     1.007825032230
      Gh(I)           0.033912463239    -0.034122321112    -0.399269966389   126.904471900000
         N           -0.240957536761     0.242447678888     2.836880033611    14.003074004430
         H            0.049102463239    -0.618132321112     3.283560033611     1.007825032230
         H            0.343042463239     0.998707678888     3.170480033611     1.007825032230
         H           -1.202437536761     0.434777678888     3.087550033611     1.007825032230

  Running in c1 symmetry.

  Rotational constants: A =      6.16453  B =      0.09973  C =      0.09973 [cm^-1]
  Rotational constants: A = 184807.96893  B =   2989.93783  C =   2989.93736 [MHz]
  Nuclear repulsion =   11.944047633723619

  Charge       = 0
  Multiplicity = 1
  Electrons    = 10
  Nalpha       = 5
  Nbeta        = 5

  ==> Algorithm <==

  SCF Algorithm Type is DF.
  DIIS enabled.
  MOM disabled.
  Fractional occupation disabled.
  Guess Type is SAD.
  Energy threshold   = 1.00e-08
  Density threshold  = 1.00e-08
  Integral threshold = 1.00e-12

  ==> Primary Basis <==

  Basis Set: THIS_BASIS
    Blend: DEF2-QZVPP
    Number of shells: 79
    Number of basis functions: 259
    Number of Cartesian functions: 316
    Spherical Harmonics?: true
    Max angular momentum: 4

  Core potential: THIS_BASIS
    Number of shells: 4
    Number of ECP primitives: 29
    Number of ECP core electrons: 0
    Max angular momentum: 3

  ==> DFT Potential <==

   => LibXC <=

    Version 6.2.2
    S. Lehtola, C. Steigemann, M. J.T. Oliveira, and M. A.L. Marques.,  SoftwareX 7, 15 (2018) (10.1016/j.softx.2017.11.002)

   => Composite Functional: PBE0 <= 

    PBE0 Hyb-GGA Exchange-Correlation Functional

    C. Adamo and V. Barone.,  J. Chem. Phys. 110, 6158 (1999) (10.1063/1.478522)
    M. Ernzerhof and G. E. Scuseria.,  J. Chem. Phys. 110, 5029 (1999) (10.1063/1.478401)

    Deriv               =              1
    GGA                 =           TRUE
    Meta                =          FALSE

    Exchange Hybrid     =           TRUE
    MP2 Hybrid          =          FALSE

   => Exchange Functionals <=

    0.7500   Perdew, Burke & Ernzerhof

   => Exact (HF) Exchange <=

    0.2500               HF 

   => Correlation Functionals <=

    1.0000   Perdew, Burke & Ernzerhof

   => LibXC Density Thresholds  <==

    XC_HYB_GGA_XC_PBEH:  1.00E-15 

   => Asymptotic Correction <=

    X Functional        =    XC_GGA_X_LB
    C Functional        =   XC_LDA_C_VWN
    Bulk Shift          =       0.113162
    GRAC Alpha          =       0.500000
    GRAC Beta           =      40.000000

   => Molecular Quadrature <=

    Radial Scheme          =       TREUTLER
    Pruning Scheme         =           NONE
    Nuclear Scheme         =       TREUTLER

    Blocking Scheme        =         OCTREE
    BS radius alpha        =              1
    Pruning alpha          =              1
    Radial Points          =             75
    Spherical Points       =            302
    Total Points           =         130155
    Total Blocks           =           1028
    Max Points             =            256
    Max Functions          =            250
    Weights Tolerance      =       1.00E-15

   => Loading Basis Set <=

    Name: (THIS_BASIS AUX)
    Role: JKFIT
    Keyword: DF_BASIS_SCF
    atoms 1, 4-6 entry H          line    18 file /home/vance/anaconda3/envs/p4env/share/psi4/basis/def2-universal-jkfit.gbs 
    atoms 2      entry I          line  4980 file /home/vance/anaconda3/envs/p4env/share/psi4/basis/def2-universal-jkfit.gbs 
    atoms 3      entry N          line   258 file /home/vance/anaconda3/envs/p4env/share/psi4/basis/def2-universal-jkfit.gbs 

  ==> Integral Setup <==

  ==> DiskDFJK: Density-Fitted J/K Matrices <==

    J tasked:                  Yes
    K tasked:                  Yes
    wK tasked:                  No
    OpenMP threads:              4
    Integrals threads:           4
    Memory [MiB]:             4932
    Algorithm:                Core
    Integral Cache:           SAVE
    Schwarz Cutoff:          1E-12
    Fitting Condition:       1E-10

   => Auxiliary Basis Set <=

  Basis Set: (THIS_BASIS AUX)
    Blend: DEF2-UNIVERSAL-JKFIT
    Number of shells: 95
    Number of basis functions: 367
    Number of Cartesian functions: 482
    Spherical Harmonics?: true
    Max angular momentum: 5

  Cached 100.0% of DFT collocation blocks in 0.772 [GiB].

  Minimum eigenvalue in the overlap matrix is 1.0046494968E-04.
  Reciprocal condition number of the overlap matrix is 1.1586226181E-05.
    Using symmetric orthogonalization.

  ==> Pre-Iterations <==

  SCF Guess: Superposition of Atomic Densities via on-the-fly atomic UHF (no occupation information).

   -------------------------
    Irrep   Nso     Nmo    
   -------------------------
     A        259     259 
   -------------------------
    Total     259     259
   -------------------------

  ==> Iterations <==

                           Total Energy        Delta E     RMS |[F,P]|

   @DF-RKS iter SAD:   -56.06826367724258   -5.60683e+01   0.00000e+00 
   @DF-RKS iter   1:   -56.27972249830748   -2.11459e-01   3.00375e-03 DIIS/ADIIS
   @DF-RKS iter   2:   -56.01777779166650    2.61945e-01   3.94194e-03 DIIS/ADIIS
   @DF-RKS iter   3:   -56.51858141765020   -5.00804e-01   2.12485e-04 DIIS/ADIIS
   @DF-RKS iter   4:   -56.52009478355625   -1.51337e-03   1.84443e-05 DIIS
   @DF-RKS iter   5:   -56.52010206919557   -7.28564e-06   4.89620e-06 DIIS
   @DF-RKS iter   6:   -56.52010214732469   -7.81291e-08   1.93531e-07 DIIS
   @DF-RKS iter   7:   -56.52010211334770    3.39770e-08   2.42239e-08 DIIS
   @DF-RKS iter   8:   -56.52010210494749    8.40021e-09   2.93072e-09 DIIS
  Energy and wave function converged.


  ==> Post-Iterations <==

   Electrons on quadrature grid:
      Ntotal   =    9.9999961219 ; deviation = -3.878e-06 

    Orbital Energies [Eh]
    ---------------------

    Doubly Occupied:                                                      

       1A    -14.471237     2A     -0.986464     3A     -0.591365  
       4A     -0.591362     5A     -0.390557  

    Virtual:                                                              

       6A     -0.086285     7A     -0.016428     8A     -0.016427  
       9A      0.005518    10A      0.044056    11A      0.044064  
      12A      0.057732    13A      0.117815    14A      0.117824  
      15A      0.129936    16A      0.186952    17A      0.265270  
      18A      0.265275    19A      0.266474    20A      0.272801  
      21A      0.272811    22A      0.314509    23A      0.332133  
      24A      0.332199    25A      0.387858    26A      0.387869  
      27A      0.412345    28A      0.424070    29A      0.424076  
      30A      0.505432    31A      0.540300    32A      0.613858  
      33A      0.652413    34A      0.652449    35A      0.664895  
      36A      0.704760    37A      0.704763    38A      0.736748  
      39A      0.804668    40A      0.804683    41A      0.877562  
      42A      0.877575    43A      0.944984    44A      0.952350  
      45A      0.959371    46A      0.963628    47A      0.963724  
      48A      1.021446    49A      1.021451    50A      1.023301  
      51A      1.075215    52A      1.092897    53A      1.095665  
      54A      1.095671    55A      1.210475    56A      1.229425  
      57A      1.229441    58A      1.237228    59A      1.237238  
      60A      1.278269    61A      1.288539    62A      1.288540  
      63A      1.379069    64A      1.379082    65A      1.398525  
      66A      1.537069    67A      1.649807    68A      1.649829  
      69A      1.784521    70A      1.936637    71A      1.941831  
      72A      1.941852    73A      2.012132    74A      2.034889  
      75A      2.034906    76A      2.039275    77A      2.151374  
      78A      2.151379    79A      2.231255    80A      2.231265  
      81A      2.311858    82A      2.311861    83A      2.334282  
      84A      2.365814    85A      2.365844    86A      2.442497  
      87A      2.510615    88A      2.510912    89A      2.516919  
      90A      2.516926    91A      2.533418    92A      2.533457  
      93A      2.581333    94A      2.604395    95A      2.604402  
      96A      2.606499    97A      2.683895    98A      2.683915  
      99A      2.697705   100A      2.810469   101A      2.810509  
     102A      2.884612   103A      2.923505   104A      2.923574  
     105A      2.951828   106A      2.975850   107A      2.975878  
     108A      3.068470   109A      3.068843   110A      3.072227  
     111A      3.072252   112A      3.073499   113A      3.111693  
     114A      3.111700   115A      3.186868   116A      3.230904  
     117A      3.292180   118A      3.293609   119A      3.293613  
     120A      3.297729   121A      3.297738   122A      3.392640  
     123A      3.392653   124A      3.493193   125A      3.493195  
     126A      3.503264   127A      3.571584   128A      3.571611  
     129A      3.586918   130A      3.799481   131A      3.866478  
     132A      3.932116   133A      3.932169   134A      4.003375  
     135A      4.003434   136A      4.146279   137A      4.201603  
     138A      4.201620   139A      4.252628   140A      4.593071  
     141A      4.983752   142A      4.983793   143A      5.143108  
     144A      5.738953   145A      5.738962   146A      5.839903  
     147A      5.839915   148A      5.885910   149A      5.924024  
     150A      5.924045   151A      6.010655   152A      6.111869  
     153A      6.137653   154A      6.219172   155A      6.219179  
     156A      6.278940   157A      6.497052   158A      6.569674  
     159A      6.569685   160A      6.608024   161A      6.608080  
     162A      6.828230   163A      6.943067   164A      6.943093  
     165A      6.962622   166A      7.152531   167A      7.152550  
     168A      7.219405   169A      7.233296   170A      7.233314  
     171A      7.402151   172A      7.402246   173A      7.421642  
     174A      7.563653   175A      7.602854   176A      7.602890  
     177A      7.731144   178A      7.731172   179A      7.780517  
     180A      7.832983   181A      7.933941   182A      7.955961  
     183A      7.956002   184A      8.065141   185A      8.125786  
     186A      8.125832   187A      8.158243   188A      8.226271  
     189A      8.335278   190A      8.361628   191A      8.361638  
     192A      8.433999   193A      8.434029   194A      8.520683  
     195A      8.520700   196A      8.609436   197A      8.764863  
     198A      8.765044   199A      8.892973   200A      8.907363  
     201A      8.907385   202A      9.034510   203A      9.034532  
     204A      9.353897   205A      9.353915   206A      9.425658  
     207A      9.527899   208A      9.559164   209A      9.559194  
     210A      9.734861   211A      9.734896   212A      9.777527  
     213A      9.902997   214A      9.975391   215A      9.986180  
     216A      9.986199   217A     10.184474   218A     10.456716  
     219A     10.457038   220A     10.465956   221A     10.465960  
     222A     10.655398   223A     10.655400   224A     10.859013  
     225A     11.071564   226A     11.130226   227A     11.130256  
     228A     11.318763   229A     11.584760   230A     11.584780  
     231A     11.591414   232A     11.775833   233A     11.775858  
     234A     11.896040   235A     13.647387   236A     13.647388  
     237A     14.284755   238A     14.284777   239A     14.412360  
     240A     14.479070   241A     14.479073   242A     14.560754  
     243A     14.560761   244A     15.093607   245A     15.231415  
     246A     32.345255   247A     32.345258   248A     32.346114  
     249A     32.346228   250A     32.409700   251A     32.409702  
     252A     32.568717   253A     36.113994   254A     38.361082  
     255A     90.803901   256A     90.803903   257A     90.868474  
     258A    167.790020   259A    197.872257  

    Final Occupation by Irrep:
              A 
    DOCC [     5 ]
    NA   [     5 ]
    NB   [     5 ]

  @DF-RKS Final Energy:   -56.52010210494749

   => Energetics <=

    Nuclear Repulsion Energy =             11.9440476337236188
    One-Electron Energy =                 -99.6855858711782616
    Two-Electron Energy =                  37.2643225386311414
    DFT Exchange-Correlation Energy =      -6.0428864061239826
    Empirical Dispersion Energy =           0.0000000000000000
    VV10 Nonlocal Energy =                  0.0000000000000000
    Total Energy =                        -56.5201021049474903

Computation Completed


Properties will be evaluated at   0.000000,   0.000000,   0.000000 [a0]

Properties computed using the SCF density matrix


 Multipole Moments:

 ------------------------------------------------------------------------------------
     Multipole            Electronic (a.u.)      Nuclear  (a.u.)        Total (a.u.)
 ------------------------------------------------------------------------------------

 L = 1.  Multiply by 2.5417464519 to convert [e a0] to [Debye]
 Dipole X            :          4.6709988           -4.7186374           -0.0476386
 Dipole Y            :         -4.6999538            4.7479119            0.0479581
 Dipole Z            :        -54.9956709           55.5574763            0.5618054
 Magnitude           :                                                    0.5658575

 ------------------------------------------------------------------------------------

*** tstop() called on cmpsrv002 at Thu Sep 19 14:00:37 2024
Module time:
	user time   =      50.16 seconds =       0.84 minutes
	system time =       1.89 seconds =       0.03 minutes
	total time  =         56 seconds =       0.93 minutes
Total time:
	user time   =     159.63 seconds =       2.66 minutes
	system time =      10.33 seconds =       0.17 minutes
	total time  =        193 seconds =       3.22 minutes

         ---------------------------------------------------------
               SAPT(DFT): Intermolecular Interaction Segment       

                   by Daniel G. A. Smith and Rob Parrish           
         ---------------------------------------------------------

  ==> Algorithm <==

   SAPT DFT Functional             PBE0
   Monomer A GRAC Shift        0.094577
   Monomer B GRAC Shift        0.113162
   Delta HF                        True
   JK Algorithm                      DF

  ==> Preparing SAPT Data Cache <== 

  ==> DiskDFJK: Density-Fitted J/K Matrices <==

    J tasked:                  Yes
    K tasked:                  Yes
    wK tasked:                  No
    OpenMP threads:              4
    Integrals threads:           4
    Memory [MiB]:             4932
    Algorithm:                Core
    Integral Cache:           SAVE
    Schwarz Cutoff:          1E-12
    Fitting Condition:       1E-10

   => Auxiliary Basis Set <=

  Basis Set: (THIS_BASIS AUX)
    Blend: DEF2-UNIVERSAL-JKFIT
    Number of shells: 95
    Number of basis functions: 367
    Number of Cartesian functions: 482
    Spherical Harmonics?: true
    Max angular momentum: 5


  ==> E10 Electostatics <== 

    Elst10,r                        -50.51039572 [mEh]

  ==> E10 Exchange <== 

    Exch10(S^2)                      88.88864238 [mEh]
    Exch10                           95.72157721 [mEh]

  ==> E20 Induction <== 

   => Uncoupled Induction <= 

    Ind20,u (A<-B)                  -25.54048996 [mEh]
    Ind20,u (A->B)                  -19.66868235 [mEh]
    Ind20,u                         -45.20917231 [mEh]
    Exch-Ind20,u (A<-B)              18.57895264 [mEh]
    Exch-Ind20,u (A->B)               5.46885714 [mEh]
    Exch-Ind20,u                     24.04780978 [mEh]
    Exch-Ind20,u (A<-B) (S^inf)      21.76504445 [mEh]
    Exch-Ind20,u (A->B) (S^inf)       7.69250480 [mEh]
    Exch-Ind20,u (S^inf)             29.45754925 [mEh]

   => Coupled Induction <= 

   ---------------------------------------------------
              SAPT Coupled Induction Solver           
   ---------------------------------------------------
    Maxiter             =          20
    Convergence         =   1.000E-06
   ---------------------------------------------------
     Iter       (A<-B)           (B->A)      Time [s]
   ---------------------------------------------------
    Guess    1.656056e-01     1.688920e-01         17
        1    4.427060e-02     5.600523e-02         33
        2    1.344016e-02     2.038315e-02         46
        3    2.656305e-03     1.896427e-03         60
        4    4.634203e-04     1.373902e-04         76
        5    8.353180e-05     1.038234e-05         93
        6    1.091872e-05     1.078330e-06        108
        7    1.329466e-06     9.893943e-08*       124
        8    1.457011e-07*    9.893943e-08*       131
   ---------------------------------------------------

    Ind20,r (A<-B)                  -26.49681739 [mEh]
    Ind20,r (A->B)                  -20.77352727 [mEh]
    Ind20,r                         -47.27034467 [mEh]
    Exch-Ind20,r (A<-B)              20.50140354 [mEh]
    Exch-Ind20,r (A->B)               6.43671125 [mEh]
    Exch-Ind20,r                     26.93811479 [mEh]
    Exch-Ind20,r (A<-B) (S^inf)      24.04642247 [mEh]
    Exch-Ind20,r (A->B) (S^inf)       8.97699642 [mEh]
    Exch-Ind20,r (S^inf)             33.02341889 [mEh]
   => Loading Basis Set <=

    Name: (THIS_BASIS AUX)
    Role: RIFIT
    Keyword: DF_BASIS_MP2
    atoms 1, 4-6 entry H          line    24 file /home/vance/anaconda3/envs/p4env/share/psi4/basis/def2-qzvpp-ri.gbs 
    atoms 2      entry I          line  4948 file /home/vance/anaconda3/envs/p4env/share/psi4/basis/def2-qzvpp-ri.gbs 
    atoms 3      entry N          line   338 file /home/vance/anaconda3/envs/p4env/share/psi4/basis/def2-qzvpp-ri.gbs 



  ==> E20 Dispersion (CHF FDDS) <== 

   Legendre Points:          10
   Lambda Shift:          0.300
   Fxc Kernal:             ALDA
   (P|Fxc|Q) Thresh:  1.000e-06
  DFHelper Memory: AOs need 0.325 GiB; user supplied 5.960 GiB. 
  Using in-core AOs.

  ==> DFHelper <==
    NBF:                             259
    NAux:                            641
    Schwarz Cutoff:                1E-12
    Mask sparsity (%):                 6
    DFH Avail. Memory [GiB]:       5.960
    OpenMP threads:                    4
    Algorithm:                    DIRECT
    AO Core:                        True
    MO Core:                       False
    Hold Metric:                   False
    Metric Power:                  0.000
    Fitting Condition:             1E-12
    Q Shell Max:                      13


  DFHelper Memory: AOs need 0.345 GiB; user supplied 5.960 GiB. 
  Using in-core AOs.


   => Time Integration <= 

       Omega       Weight       Disp20,u         Disp20   time [s]
   2.269e+01    6.667e-02      5.328e-04      5.025e-04          1
   4.147e+00    1.495e-01      8.428e-03      7.639e-03          2
   1.572e+00    2.191e-01      2.308e-02      1.930e-02          3
   7.589e-01    2.693e-01      3.655e-02      2.743e-02          4
   4.049e-01    2.955e-01      4.098e-02      2.757e-02          6
   2.223e-01    2.955e-01      3.511e-02      2.188e-02          7
   1.186e-01    2.693e-01      2.498e-02      1.500e-02          7
   5.727e-02    2.191e-01      1.586e-02      9.399e-03          8
   2.170e-02    1.495e-01      8.943e-03      5.278e-03          9
   3.966e-03    6.667e-02      3.573e-03      2.108e-03          9

    Disp20,u                        -31.51906269 [mEh]
    Disp20                          -21.66020427 [mEh]

  ==> E20 Dispersion (MP2) <== 


    Disp20 (MP2)                    -31.46499357 [mEh]
    Exch-Disp20,u                     6.38533885 [mEh]
    Scaling Scheme                    FIXED
    Scaling Factor                    0.770
    Est. Exch-Disp20,r                4.91671091 [mEh]

   SAPT(DFT) Results
  ---------------------------------------------------------------------------------------------------------
    Electrostatics                  -50.51039572 [mEh]    -31.69575184 [kcal/mol]   -132.61502570 [kJ/mol]
      Elst1,r                       -50.51039572 [mEh]    -31.69575184 [kcal/mol]   -132.61502570 [kJ/mol]

    Exchange                         95.72157721 [mEh]     60.06619655 [kcal/mol]    251.31696635 [kJ/mol]
      Exch1                          95.72157721 [mEh]     60.06619655 [kcal/mol]    251.31696635 [kJ/mol]
      Exch1(S^2)                     88.88864238 [mEh]     55.77846520 [kcal/mol]    233.37709841 [kJ/mol]

    Induction                       -47.79876648 [mEh]    -29.99417880 [kcal/mol]   -125.49564411 [kJ/mol]
      Ind2,r                        -47.27034467 [mEh]    -29.66258911 [kcal/mol]   -124.10827283 [kJ/mol]
      Exch-Ind2,r                    26.93811479 [mEh]     16.90392224 [kcal/mol]     70.72601063 [kJ/mol]
      Induction (A<-B)               -5.99541385 [mEh]     -3.76217899 [kcal/mol]    -15.74095690 [kJ/mol]
      Induction (A->B)              -14.33681603 [mEh]     -8.99648788 [kcal/mol]    -37.64130529 [kJ/mol]
      delta HF,r (2)                -27.46653660 [mEh]    -17.23551193 [kcal/mol]    -72.11338192 [kJ/mol]

    Dispersion                      -16.74349336 [mEh]    -10.50670070 [kcal/mol]    -43.96003575 [kJ/mol]
      Disp2,r                       -21.66020427 [mEh]    -13.59198338 [kcal/mol]    -56.86885847 [kJ/mol]
      Disp2,u                       -31.46499357 [mEh]    -19.74458156 [kcal/mol]    -82.61132924 [kJ/mol]
      Est. Exch-Disp2,r               4.91671091 [mEh]      3.08528268 [kcal/mol]     12.90882272 [kJ/mol]
      Exch-Disp2,u                    6.38533885 [mEh]      4.00686062 [kcal/mol]     16.76470483 [kJ/mol]

    Total SAPT(DFT)                 -19.33107835 [mEh]    -12.13043480 [kcal/mol]    -50.75373921 [kJ/mol]
  ---------------------------------------------------------------------------------------------------------

*** tstop() called on cmpsrv002 at Thu Sep 19 14:30:58 2024
Module time:
	user time   =     455.23 seconds =       7.59 minutes
	system time =      20.50 seconds =       0.34 minutes
	total time  =       1877 seconds =      31.28 minutes
Total time:
	user time   =     564.70 seconds =       9.41 minutes
	system time =      28.94 seconds =       0.48 minutes
	total time  =       2014 seconds =      33.57 minutes

Traceback (most recent call last):
  File "/home/vance/anaconda3/envs/p4env/bin/psi4", line 387, in <module>
    exec(content)
  File "<string>", line 61, in <module>
  File "/home/vance/anaconda3/envs/p4env/lib/python3.12/site-packages/psi4/driver/p4util/python_helpers.py", line 1121, in _core_variable
    raise KeyError(f"psi4.core.variable: Requested variable '{key}' was not set!\n")

KeyError: "psi4.core.variable: Requested variable 'SAPT IND20,R ENERGY' was not set!\n"


Printing out the relevant lines from the Psithon --> Python processed input file:
    eelst = psi4.core.variable('SAPT ELST ENERGY')
    eexch = psi4.core.variable('SAPT EXCH ENERGY')
    eind = psi4.core.variable('SAPT IND ENERGY')
    edisp = psi4.core.variable('SAPT DISP ENERGY')
    esapt = psi4.core.variable('SAPT TOTAL ENERGY')
--> eind20r = psi4.core.variable('SAPT IND20,R ENERGY')
    eexind20r = psi4.core.variable('SAPT EXCH-IND20,R ENERGY')
    eind20u = psi4.core.variable('SAPT IND20,U ENERGY')
    eexind20u = psi4.core.variable('SAPT EXCH-IND20,U ENERGY')
    edisp20 = psi4.core.variable('SAPT DISP20 ENERGY')
    eexdisp20 = psi4.core.variable('SAPT EXCH-DISP20 ENERGY')

!--------------------------------------------------------------------------------!
!                                                                                !
!  "psi4.core.variable: Requested variable 'SAPT IND20,R ENERGY' was not set!\n" !
!                                                                                !
!--------------------------------------------------------------------------------!

    Psi4 stopped on: Thursday, 19 September 2024 02:30PM
    Psi4 wall time for execution: 0:33:34.05

*** Psi4 encountered an error. Buy a developer more coffee!
*** Resources and help at github.com/psi4/psi4.
