
Host: cmpsrv002

Timers On : Wed Sep 18 19:45:36 2024
Timers Off: Wed Sep 18 19:45:36 2024

Wall Time:        0.62 seconds

                                                       Time (seconds)
Module                                       User      System        Wall        Calls

--------------------------------------------------------------------------------------

**************************************************************************************

Host: cmpsrv002

Timers On : Wed Sep 18 19:45:36 2024
Timers Off: Wed Sep 18 19:45:36 2024

Wall Time:        0.68 seconds

                                                       Time (seconds)
Module                                       User      System        Wall        Calls

--------------------------------------------------------------------------------------

**************************************************************************************

Host: cmpsrv002

Timers On : Wed Sep 18 19:45:36 2024
Timers Off: Wed Sep 18 19:45:36 2024

Wall Time:        0.83 seconds

                                                       Time (seconds)
Module                                       User      System        Wall        Calls

--------------------------------------------------------------------------------------

**************************************************************************************

Host: cmpsrv002

Timers On : Wed Sep 18 19:45:36 2024
Timers Off: Wed Sep 18 19:45:36 2024

Wall Time:        0.83 seconds

                                                       Time (seconds)
Module                                       User      System        Wall        Calls

--------------------------------------------------------------------------------------

**************************************************************************************

Host: cmpsrv002

Timers On : Wed Sep 18 19:45:36 2024
Timers Off: Wed Sep 18 19:45:36 2024

Wall Time:        0.83 seconds

                                                       Time (seconds)
Module                                       User      System        Wall        Calls

--------------------------------------------------------------------------------------

**************************************************************************************

Host: cmpsrv002

Timers On : Wed Sep 18 19:45:36 2024
Timers Off: Wed Sep 18 19:45:36 2024

Wall Time:        0.87 seconds

                                                       Time (seconds)
Module                                       User      System        Wall        Calls

--------------------------------------------------------------------------------------

**************************************************************************************

Host: cmpsrv002

Timers On : Wed Sep 18 19:45:36 2024
Timers Off: Wed Sep 18 19:45:36 2024

Wall Time:        0.78 seconds

                                                       Time (seconds)
Module                                       User      System        Wall        Calls

--------------------------------------------------------------------------------------

**************************************************************************************

Host: cmpsrv002

Timers On : Wed Sep 18 19:45:36 2024
Timers Off: Wed Sep 18 19:45:36 2024

Wall Time:        0.81 seconds

                                                       Time (seconds)
Module                                       User      System        Wall        Calls

--------------------------------------------------------------------------------------

**************************************************************************************

Host: cmpsrv002

Timers On : Wed Sep 18 19:45:36 2024
Timers Off: Wed Sep 18 19:45:37 2024

Wall Time:        0.87 seconds

                                                       Time (seconds)
Module                                       User      System        Wall        Calls

--------------------------------------------------------------------------------------

**************************************************************************************

Host: cmpsrv002

Timers On : Wed Sep 18 19:45:36 2024
Timers Off: Wed Sep 18 19:45:37 2024

Wall Time:        0.84 seconds

                                                       Time (seconds)
Module                                       User      System        Wall        Calls

--------------------------------------------------------------------------------------

**************************************************************************************

Host: cmpsrv002

Timers On : Wed Sep 18 19:45:36 2024
Timers Off: Wed Sep 18 19:45:37 2024

Wall Time:        0.90 seconds

                                                       Time (seconds)
Module                                       User      System        Wall        Calls

--------------------------------------------------------------------------------------

**************************************************************************************

Host: cmpsrv002

Timers On : Wed Sep 18 19:45:36 2024
Timers Off: Wed Sep 18 19:45:37 2024

Wall Time:        0.97 seconds

                                                       Time (seconds)
Module                                       User      System        Wall        Calls

--------------------------------------------------------------------------------------

**************************************************************************************

Host: cmpsrv002

Timers On : Wed Sep 18 19:45:36 2024
Timers Off: Wed Sep 18 19:45:37 2024

Wall Time:        0.96 seconds

                                                       Time (seconds)
Module                                       User      System        Wall        Calls

--------------------------------------------------------------------------------------

**************************************************************************************

Host: cmpsrv002

Timers On : Wed Sep 18 19:45:36 2024
Timers Off: Wed Sep 18 19:45:37 2024

Wall Time:        0.96 seconds

                                                       Time (seconds)
Module                                       User      System        Wall        Calls

--------------------------------------------------------------------------------------

**************************************************************************************

Host: cmpsrv002

Timers On : Wed Sep 18 19:45:36 2024
Timers Off: Wed Sep 18 19:45:37 2024

Wall Time:        0.98 seconds

                                                       Time (seconds)
Module                                       User      System        Wall        Calls

--------------------------------------------------------------------------------------

**************************************************************************************

Host: cmpsrv002

Timers On : Wed Sep 18 19:45:36 2024
Timers Off: Wed Sep 18 19:45:37 2024

Wall Time:        0.95 seconds

                                                       Time (seconds)
Module                                       User      System        Wall        Calls

--------------------------------------------------------------------------------------

**************************************************************************************

Host: cmpsrv002

Timers On : Wed Sep 18 19:45:36 2024
Timers Off: Wed Sep 18 19:45:37 2024

Wall Time:        1.04 seconds

                                                       Time (seconds)
Module                                       User      System        Wall        Calls

--------------------------------------------------------------------------------------

**************************************************************************************

Host: cmpsrv002

Timers On : Wed Sep 18 19:45:36 2024
Timers Off: Wed Sep 18 19:45:37 2024

Wall Time:        0.92 seconds

                                                       Time (seconds)
Module                                       User      System        Wall        Calls

--------------------------------------------------------------------------------------

**************************************************************************************

Host: cmpsrv002

Timers On : Wed Sep 18 19:45:36 2024
Timers Off: Wed Sep 18 19:45:37 2024

Wall Time:        0.99 seconds

                                                       Time (seconds)
Module                                       User      System        Wall        Calls

--------------------------------------------------------------------------------------

**************************************************************************************

Host: cmpsrv002

Timers On : Wed Sep 18 19:45:36 2024
Timers Off: Wed Sep 18 19:45:37 2024

Wall Time:        0.99 seconds

                                                       Time (seconds)
Module                                       User      System        Wall        Calls

--------------------------------------------------------------------------------------

**************************************************************************************

Host: cmpsrv002

Timers On : Wed Sep 18 19:45:36 2024
Timers Off: Wed Sep 18 19:45:37 2024

Wall Time:        1.02 seconds

                                                       Time (seconds)
Module                                       User      System        Wall        Calls

--------------------------------------------------------------------------------------

**************************************************************************************

Host: cmpsrv002

Timers On : Wed Sep 18 19:45:36 2024
Timers Off: Wed Sep 18 19:45:37 2024

Wall Time:        1.14 seconds

                                                       Time (seconds)
Module                                       User      System        Wall        Calls

--------------------------------------------------------------------------------------

**************************************************************************************

Host: cmpsrv002

Timers On : Wed Sep 18 19:45:36 2024
Timers Off: Wed Sep 18 19:45:37 2024

Wall Time:        1.03 seconds

                                                       Time (seconds)
Module                                       User      System        Wall        Calls

--------------------------------------------------------------------------------------

**************************************************************************************

Host: cmpsrv002

Timers On : Wed Sep 18 19:45:36 2024
Timers Off: Wed Sep 18 19:45:37 2024

Wall Time:        0.98 seconds

                                                       Time (seconds)
Module                                       User      System        Wall        Calls

--------------------------------------------------------------------------------------

**************************************************************************************

Host: cmpsrv002

Timers On : Wed Sep 18 19:45:36 2024
Timers Off: Wed Sep 18 19:45:37 2024

Wall Time:        1.08 seconds

                                                       Time (seconds)
Module                                       User      System        Wall        Calls

--------------------------------------------------------------------------------------

**************************************************************************************

Host: cmpsrv002

Timers On : Wed Sep 18 19:45:36 2024
Timers Off: Wed Sep 18 19:45:37 2024

Wall Time:        1.10 seconds

                                                       Time (seconds)
Module                                       User      System        Wall        Calls

--------------------------------------------------------------------------------------

**************************************************************************************

Host: cmpsrv002

Timers On : Wed Sep 18 19:45:36 2024
Timers Off: Wed Sep 18 19:45:37 2024

Wall Time:        1.10 seconds

                                                       Time (seconds)
Module                                       User      System        Wall        Calls

--------------------------------------------------------------------------------------

**************************************************************************************

Host: cmpsrv002

Timers On : Wed Sep 18 19:45:36 2024
Timers Off: Wed Sep 18 19:45:37 2024

Wall Time:        1.18 seconds

                                                       Time (seconds)
Module                                       User      System        Wall        Calls

--------------------------------------------------------------------------------------

**************************************************************************************

Host: cmpsrv002

Timers On : Wed Sep 18 19:45:36 2024
Timers Off: Wed Sep 18 19:45:37 2024

Wall Time:        1.15 seconds

                                                       Time (seconds)
Module                                       User      System        Wall        Calls

--------------------------------------------------------------------------------------

**************************************************************************************

Host: cmpsrv002

Timers On : Wed Sep 18 19:45:36 2024
Timers Off: Wed Sep 18 19:45:37 2024

Wall Time:        1.18 seconds

                                                       Time (seconds)
Module                                       User      System        Wall        Calls

--------------------------------------------------------------------------------------

**************************************************************************************

Host: cmpsrv002

Timers On : Wed Sep 18 19:45:36 2024
Timers Off: Wed Sep 18 19:45:37 2024

Wall Time:        1.15 seconds

                                                       Time (seconds)
Module                                       User      System        Wall        Calls

--------------------------------------------------------------------------------------

**************************************************************************************

Host: cmpsrv002

Timers On : Wed Sep 18 19:45:36 2024
Timers Off: Wed Sep 18 19:45:37 2024

Wall Time:        1.28 seconds

                                                       Time (seconds)
Module                                       User      System        Wall        Calls

--------------------------------------------------------------------------------------

**************************************************************************************

Host: cmpsrv002

Timers On : Wed Sep 18 19:45:36 2024
Timers Off: Wed Sep 18 19:45:37 2024

Wall Time:        1.31 seconds

                                                       Time (seconds)
Module                                       User      System        Wall        Calls

--------------------------------------------------------------------------------------

**************************************************************************************

Host: cmpsrv002

Timers On : Wed Sep 18 19:45:36 2024
Timers Off: Wed Sep 18 19:45:37 2024

Wall Time:        1.28 seconds

                                                       Time (seconds)
Module                                       User      System        Wall        Calls

--------------------------------------------------------------------------------------

**************************************************************************************

Host: cmpsrv002

Timers On : Wed Sep 18 19:45:36 2024
Timers Off: Wed Sep 18 19:45:37 2024

Wall Time:        1.26 seconds

                                                       Time (seconds)
Module                                       User      System        Wall        Calls

--------------------------------------------------------------------------------------

**************************************************************************************

Host: cmpsrv002

Timers On : Wed Sep 18 19:45:36 2024
Timers Off: Wed Sep 18 19:45:37 2024

Wall Time:        1.31 seconds

                                                       Time (seconds)
Module                                       User      System        Wall        Calls

--------------------------------------------------------------------------------------

**************************************************************************************

Host: cmpsrv002

Timers On : Wed Sep 18 19:45:36 2024
Timers Off: Wed Sep 18 19:45:37 2024

Wall Time:        1.40 seconds

                                                       Time (seconds)
Module                                       User      System        Wall        Calls

--------------------------------------------------------------------------------------

**************************************************************************************

Host: cmpsrv002

Timers On : Wed Sep 18 19:45:36 2024
Timers Off: Wed Sep 18 19:45:37 2024

Wall Time:        1.64 seconds

                                                       Time (seconds)
Module                                       User      System        Wall        Calls

--------------------------------------------------------------------------------------

**************************************************************************************

Host: cmpsrv002

Timers On : Wed Sep 18 19:45:36 2024
Timers Off: Wed Sep 18 19:45:37 2024

Wall Time:        1.64 seconds

                                                       Time (seconds)
Module                                       User      System        Wall        Calls

--------------------------------------------------------------------------------------

**************************************************************************************

Host: cmpsrv002

Timers On : Wed Sep 18 19:45:36 2024
Timers Off: Wed Sep 18 19:47:47 2024

Wall Time:      131.37 seconds

                                                       Time (seconds)
Module                                       User      System        Wall        Calls
SAPT(DFT):Dimer SCF                 :     22.150u      2.150s      4.225w      1 calls
Libint2ERI::Libint2ERI              :     17.300u      0.467s      7.776w     61 calls
JK: (A|mn)                          :      4.883u      1.567s      0.970w      5 calls
JK: (A|Q)^-1/2                      :      1.967u      0.067s      0.305w      5 calls
JK: (Q|mn)                          :      4.617u      0.767s      0.805w      5 calls
HF: Form core H                     :     19.433u      1.983s      3.218w      5 calls
HF: Form S/X                        :      1.083u      0.050s      0.170w      5 calls
HF: Guess                           :     12.217u      1.133s      2.118w      5 calls
SAD Guess                           :     12.100u      1.133s      2.109w      5 calls
HF: Form G                          :     87.183u      0.517s     13.158w     55 calls
JK: D                               :      0.217u      0.000s      0.036w    100 calls
JK: USO2AO                          :      0.050u      0.000s      0.004w    100 calls
JK: JK                              :     96.800u      1.150s     14.698w    100 calls
JK: J                               :     15.717u      0.850s      2.471w    100 calls
JK: J1                              :      7.883u      0.367s      1.236w    116 calls
JK: J2                              :      7.133u      0.433s      1.139w    116 calls
JK: K                               :     79.217u      0.183s     11.946w    100 calls
JK: K1                              :     71.250u      0.050s     10.755w    175 calls
JK: K2                              :      7.533u      0.117s      1.181w    116 calls
JK: AO2USO                          :      0.017u      0.000s      0.000w    100 calls
HF: Form F                          :      0.167u      0.000s      0.017w     55 calls
HF: Form D                          :      0.100u      0.017s      0.018w     55 calls
HF: DIIS                            :      7.433u      0.933s      1.271w     50 calls
HF: Form C                          :      8.000u      0.267s      1.242w     50 calls
SAPT(DFT):Monomer A SCF             :     18.417u      1.700s      3.247w      1 calls
SAPT(DFT):Monomer B SCF             :     21.333u      1.783s      5.965w      1 calls
SAPT(HF):elst                       :      0.000u      0.000s      0.000w      1 calls
SAPT(HF):exch                       :      3.750u      0.067s      0.571w      1 calls
SAPT(HF):ind                        :     28.750u      0.383s      4.370w      1 calls
SAPT(DFT): Monomer A DFT            :     56.300u      3.783s     12.650w      1 calls
V: Grid                             :      1.150u      0.033s      0.179w      2 calls
build grid                          :      0.517u      0.017s      0.078w      2 calls
post-process grid                   :      0.633u      0.017s      0.101w      2 calls
RV: Form V                          :     54.650u      0.033s      8.201w     20 calls
Properties                          :     46.342p                          38517 calls
Functional                          :      4.835p                          38517 calls
V_xc                                :     16.179p                          20820 calls
SAPT(DFT): Monomer B DFT            :     57.583u      1.900s     10.691w      1 calls
SAPT(DFT):Build JK                  :      3.200u      0.050s      0.486w      1 calls
SAPT(DFT):elst                      :      0.017u      0.000s      0.000w      1 calls
SAPT(DFT):exch                      :      2.800u      0.050s      0.427w      1 calls
SAPT(DFT):ind                       :    145.133u      0.433s     21.845w      1 calls
RV: Form Vx                         :    118.483u      0.167s     17.798w     17 calls
Derivative Properties               :     14.805p                          17697 calls
V_XCd                               :     17.144p                          17697 calls
SAPT(DFT):disp                      :    285.183u     30.067s     60.732w      1 calls
FDDS disp                           :    236.733u     23.183s     46.745w      1 calls
Form FDDS object                    :     99.017u     14.617s     22.078w      1 calls
Form JS                             :      1.633u      0.033s      0.253w      1 calls
DFH: initialize()                   :     13.050u      1.200s      2.797w      2 calls
DFH: sparsity prep                  :      1.700u      0.067s      0.491w      1 calls
DFH: AO Construction                :      8.983u      1.033s      1.504w      2 calls
DFH: transform()                    :     45.350u      9.100s     11.080w      2 calls
DFH: Total Workflow                 :     34.533u      1.467s      5.822w     30 calls
DFH: Total Transform                :     16.450u      0.933s      2.672w     18 calls
DFH: 1st Contraction                :      9.867u      0.467s      1.562w      6 calls
DFH: 2nd Contraction                :      6.583u      0.467s      1.110w     12 calls
DFH: MO to disk, Qbs                :      0.100u      0.033s      0.019w      1 calls
DFH: MO to disk, bsQ                :      0.100u      0.017s      0.018w      1 calls
DFH: MO to disk, sbQ                :      0.083u      0.033s      0.019w      1 calls
DFH: MO to disk, Qar                :      0.217u      0.083s      0.044w      1 calls
DFH: MO to disk, arQ                :      0.200u      0.083s      0.041w      1 calls
DFH: MO to disk, raQ                :      0.200u      0.083s      0.039w      1 calls
DFH: Metric Contractions            :     24.450u      5.217s      6.165w      2 calls
DFH: MO to disk, bbR                :      0.000u      0.017s      0.000w      1 calls
DFH: MO to disk, bsR                :      0.067u      0.017s      0.012w      1 calls
DFH: MO to disk, aaR                :      0.017u      0.000s      0.002w      1 calls
DFH: MO to disk, arR                :      0.133u      0.067s      0.029w      1 calls
DFH: MO to disk, rrR                :      0.283u      0.967s      0.554w      1 calls
DFH: MO to disk, ssR                :      0.283u      1.083s      0.616w      1 calls
FDDS: QR                            :      3.000u      0.417s      0.797w      1 calls
FDDS: Form X                        :     11.400u      0.800s      2.069w      1 calls
FDDS: Form Y                        :     24.550u      3.067s      5.072w      1 calls
Form xc kernel                      :     26.200u      0.383s      5.679w      1 calls
Time Integration                    :    110.767u      6.867s     18.101w      1 calls
MP2 disp                            :     48.017u      6.867s     13.919w      1 calls
SAPT0: DF Integrals                 :     31.050u      5.233s     10.760w      1 calls
SAPT0: W Integrals                  :      0.017u      0.017s      0.039w      1 calls
SAPT0: Exch-Disp20 N^5              :      1.900u      0.550s      0.657w      1 calls
SAPT0: Exch-Disp20 N^4              :     14.683u      1.050s      2.363w      1 calls

--------------------------------------------------------------------------------------
SAPT(DFT):Dimer SCF                 :     22.150u      2.150s      4.225w      1 calls
| Libint2ERI::Libint2ERI            :      0.850u      0.050s      0.542w      2 calls
| JK: (A|mn)                        :      0.867u      0.367s      0.185w      1 calls
| JK: (A|Q)^-1/2                    :      0.350u      0.017s      0.055w      1 calls
| | Libint2ERI::Libint2ERI          :      0.033u      0.000s      0.005w      4 calls
| JK: (Q|mn)                        :      0.733u      0.150s      0.132w      1 calls
| HF: Form core H                   :      3.133u      0.333s      0.520w      1 calls
| HF: Form S/X                      :      0.167u      0.017s      0.028w      1 calls
| HF: Guess                         :      3.150u      0.333s      0.529w      1 calls
| | SAD Guess                       :      3.133u      0.333s      0.527w      1 calls
| HF: Form G                        :      6.733u      0.067s      1.026w     13 calls
| | JK: D                           :      0.017u      0.000s      0.004w     13 calls
| | JK: USO2AO                      :      0.000u      0.000s      0.000w     13 calls
| | JK: JK                          :      6.717u      0.067s      1.015w     13 calls
| | | JK: J                         :      1.400u      0.033s      0.221w     13 calls
| | | | JK: J1                      :      0.700u      0.000s      0.111w     13 calls
| | | | JK: J2                      :      0.650u      0.017s      0.102w     13 calls
| | | JK: K                         :      5.017u      0.033s      0.760w     13 calls
| | | | JK: K1                      :      3.800u      0.017s      0.580w     13 calls
| | | | JK: K2                      :      1.183u      0.000s      0.179w     13 calls
| | JK: AO2USO                      :      0.000u      0.000s      0.000w     13 calls
| HF: Form F                        :      0.033u      0.000s      0.003w     13 calls
| HF: Form D                        :      0.033u      0.000s      0.003w     13 calls
| HF: DIIS                          :      1.833u      0.233s      0.307w     12 calls
| HF: Form C                        :      1.400u      0.050s      0.218w     12 calls
SAPT(DFT):Monomer A SCF             :     18.417u      1.700s      3.247w      1 calls
| Libint2ERI::Libint2ERI            :      0.650u      0.017s      0.312w      2 calls
| JK: (A|mn)                        :      0.733u      0.317s      0.158w      1 calls
| JK: (A|Q)^-1/2                    :      0.267u      0.000s      0.041w      1 calls
| | Libint2ERI::Libint2ERI          :      0.000u      0.000s      0.001w      4 calls
| JK: (Q|mn)                        :      0.733u      0.217s      0.141w      1 calls
| HF: Form core H                   :      2.833u      0.300s      0.470w      1 calls
| HF: Form S/X                      :      0.150u      0.000s      0.022w      1 calls
| HF: Guess                         :      2.533u      0.233s      0.414w      1 calls
| | SAD Guess                       :      2.517u      0.233s      0.413w      1 calls
| HF: Form G                        :      5.533u      0.067s      0.839w     12 calls
| | JK: D                           :      0.000u      0.000s      0.003w     12 calls
| | JK: USO2AO                      :      0.000u      0.000s      0.000w     12 calls
| | JK: JK                          :      5.500u      0.067s      0.832w     12 calls
| | | JK: J                         :      1.267u      0.033s      0.188w     12 calls
| | | | JK: J1                      :      0.633u      0.017s      0.093w     12 calls
| | | | JK: J2                      :      0.600u      0.017s      0.089w     12 calls
| | | JK: K                         :      4.050u      0.017s      0.621w     12 calls
| | | | JK: K1                      :      3.317u      0.017s      0.508w     12 calls
| | | | JK: K2                      :      0.717u      0.000s      0.113w     12 calls
| | JK: AO2USO                      :      0.000u      0.000s      0.000w     12 calls
| HF: Form F                        :      0.033u      0.000s      0.003w     12 calls
| HF: Form D                        :      0.033u      0.017s      0.003w     12 calls
| HF: DIIS                          :      0.950u      0.117s      0.158w     11 calls
| HF: Form C                        :      1.367u      0.033s      0.215w     11 calls
SAPT(DFT):Monomer B SCF             :     21.333u      1.783s      5.965w      1 calls
| Libint2ERI::Libint2ERI            :      0.583u      0.017s      0.301w      2 calls
| JK: (A|mn)                        :      0.700u      0.250s      0.143w      1 calls
| JK: (A|Q)^-1/2                    :      0.300u      0.000s      0.046w      1 calls
| | Libint2ERI::Libint2ERI          :      0.000u      0.000s      0.001w      4 calls
| JK: (Q|mn)                        :      0.867u      0.133s      0.150w      1 calls
| HF: Form core H                   :      4.067u      0.333s      0.659w      1 calls
| HF: Form S/X                      :      0.233u      0.000s      0.036w      1 calls
| HF: Guess                         :      1.067u      0.100s      0.171w      1 calls
| | SAD Guess                       :      1.033u      0.100s      0.169w      1 calls
| HF: Form G                        :      6.800u      0.133s      1.041w     10 calls
| | JK: D                           :      0.000u      0.000s      0.004w     10 calls
| | JK: USO2AO                      :      0.017u      0.000s      0.000w     10 calls
| | JK: JK                          :      6.733u      0.133s      1.031w     10 calls
| | | JK: J                         :      1.483u      0.100s      0.240w     10 calls
| | | | JK: J1                      :      0.767u      0.017s      0.126w     10 calls
| | | | JK: J2                      :      0.650u      0.067s      0.104w     10 calls
| | | JK: K                         :      5.167u      0.017s      0.773w     10 calls
| | | | JK: K1                      :      4.800u      0.000s      0.719w     10 calls
| | | | JK: K2                      :      0.300u      0.017s      0.054w     10 calls
| | JK: AO2USO                      :      0.000u      0.000s      0.000w     10 calls
| HF: Form F                        :      0.050u      0.000s      0.004w     10 calls
| HF: Form D                        :      0.000u      0.000s      0.004w     10 calls
| HF: DIIS                          :      1.400u      0.183s      0.242w      9 calls
| HF: Form C                        :      1.883u      0.117s      0.291w      9 calls
JK: D                               :      0.000u      0.000s      0.001w      1 calls
JK: USO2AO                          :      0.017u      0.000s      0.001w      1 calls
JK: JK                              :      3.717u      0.033s      0.565w      1 calls
| JK: J                             :      0.383u      0.033s      0.062w      1 calls
| | JK: J1                          :      0.200u      0.017s      0.032w      3 calls
| | JK: J2                          :      0.183u      0.017s      0.028w      3 calls
| JK: K                             :      3.317u      0.000s      0.498w      1 calls
| | JK: K1                          :      3.067u      0.000s      0.462w      6 calls
| | JK: K2                          :      0.233u      0.000s      0.036w      3 calls
JK: AO2USO                          :      0.000u      0.000s      0.000w      1 calls
SAPT(HF):elst                       :      0.000u      0.000s      0.000w      1 calls
SAPT(HF):exch                       :      3.750u      0.067s      0.571w      1 calls
| JK: D                             :      0.017u      0.000s      0.001w      1 calls
| JK: USO2AO                        :      0.000u      0.000s      0.000w      1 calls
| JK: JK                            :      3.583u      0.050s      0.547w      1 calls
| | JK: J                           :      0.367u      0.050s      0.061w      1 calls
| | | JK: J1                        :      0.217u      0.033s      0.030w      3 calls
| | | JK: J2                        :      0.150u      0.017s      0.029w      3 calls
| | JK: K                           :      3.200u      0.000s      0.481w      1 calls
| | | JK: K1                        :      2.967u      0.000s      0.446w      6 calls
| | | JK: K2                        :      0.233u      0.000s      0.036w      3 calls
| JK: AO2USO                        :      0.017u      0.000s      0.000w      1 calls
SAPT(HF):ind                        :     28.750u      0.383s      4.370w      1 calls
| JK: D                             :      0.050u      0.000s      0.007w     22 calls
| JK: USO2AO                        :      0.000u      0.000s      0.000w     22 calls
| JK: JK                            :     26.800u      0.283s      4.057w     22 calls
| | JK: J                           :      3.483u      0.233s      0.554w     22 calls
| | | JK: J1                        :      1.783u      0.100s      0.279w     26 calls
| | | JK: J2                        :      1.567u      0.133s      0.253w     26 calls
| | JK: K                           :     22.783u      0.033s      3.427w     22 calls
| | | JK: K1                        :     20.917u      0.000s      3.158w     51 calls
| | | JK: K2                        :      1.733u      0.033s      0.267w     26 calls
| JK: AO2USO                        :      0.000u      0.000s      0.000w     22 calls
SAPT(DFT): Monomer A DFT            :     56.300u      3.783s     12.650w      1 calls
| V: Grid                           :      0.483u      0.033s      0.077w      1 calls
| | build grid                      :      0.217u      0.017s      0.033w      1 calls
| | post-process grid               :      0.267u      0.017s      0.044w      1 calls
| Libint2ERI::Libint2ERI            :      0.850u      0.000s      0.510w      2 calls
| JK: (A|mn)                        :      1.150u      0.350s      0.226w      1 calls
| JK: (A|Q)^-1/2                    :      0.500u      0.033s      0.080w      1 calls
| | Libint2ERI::Libint2ERI          :      0.017u      0.000s      0.004w      4 calls
| JK: (Q|mn)                        :      1.217u      0.117s      0.200w      1 calls
| HF: Form core H                   :      5.100u      0.717s      0.879w      1 calls
| HF: Form S/X                      :      0.283u      0.017s      0.044w      1 calls
| HF: Guess                         :      4.183u      0.383s      0.799w      1 calls
| | SAD Guess                       :      4.150u      0.383s      0.796w      1 calls
| HF: Form G                        :     31.067u      0.100s      4.672w     11 calls
| | RV: Form V                      :     24.517u      0.000s      3.676w     11 calls
| | | Properties                    :      5.841p                          11451 calls
| | | Functional                    :      1.471p                          11451 calls
| | | V_xc                          :      7.289p                          11451 calls
| | JK: D                           :      0.000u      0.000s      0.004w     11 calls
| | JK: USO2AO                      :      0.000u      0.000s      0.001w     11 calls
| | JK: JK                          :      6.500u      0.100s      0.985w     11 calls
| | | JK: J                         :      1.467u      0.083s      0.227w     11 calls
| | | | JK: J1                      :      0.750u      0.033s      0.108w     11 calls
| | | | JK: J2                      :      0.633u      0.050s      0.110w     11 calls
| | | JK: K                         :      4.817u      0.017s      0.731w     11 calls
| | | | JK: K1                      :      4.000u      0.000s      0.602w     11 calls
| | | | JK: K2                      :      0.783u      0.017s      0.128w     11 calls
| | JK: AO2USO                      :      0.000u      0.000s      0.000w     11 calls
| HF: Form F                        :      0.000u      0.000s      0.003w     11 calls
| HF: Form D                        :      0.000u      0.000s      0.003w     11 calls
| HF: DIIS                          :      1.333u      0.200s      0.220w     10 calls
| HF: Form C                        :      1.617u      0.033s      0.252w     10 calls
SAPT(DFT): Monomer B DFT            :     57.583u      1.900s     10.691w      1 calls
| V: Grid                           :      0.667u      0.000s      0.102w      1 calls
| | build grid                      :      0.300u      0.000s      0.045w      1 calls
| | post-process grid               :      0.367u      0.000s      0.057w      1 calls
| Libint2ERI::Libint2ERI            :      1.233u      0.000s      0.743w      2 calls
| JK: (A|mn)                        :      1.433u      0.283s      0.258w      1 calls
| JK: (A|Q)^-1/2                    :      0.550u      0.017s      0.084w      1 calls
| | Libint2ERI::Libint2ERI          :      0.017u      0.000s      0.002w      4 calls
| JK: (Q|mn)                        :      1.067u      0.150s      0.182w      1 calls
| HF: Form core H                   :      4.300u      0.300s      0.691w      1 calls
| HF: Form S/X                      :      0.250u      0.017s      0.040w      1 calls
| HF: Guess                         :      1.283u      0.083s      0.205w      1 calls
| | SAD Guess                       :      1.267u      0.083s      0.203w      1 calls
| HF: Form G                        :     37.050u      0.150s      5.580w      9 calls
| | RV: Form V                      :     30.133u      0.033s      4.525w      9 calls
| | | Properties                    :      7.409p                           9369 calls
| | | Functional                    :      1.663p                           9369 calls
| | | V_xc                          :      8.891p                           9369 calls
| | JK: D                           :      0.033u      0.000s      0.004w      9 calls
| | JK: USO2AO                      :      0.017u      0.000s      0.000w      9 calls
| | JK: JK                          :      6.800u      0.117s      1.044w      9 calls
| | | JK: J                         :      1.367u      0.100s      0.214w      9 calls
| | | | JK: J1                      :      0.683u      0.017s      0.107w      9 calls
| | | | JK: J2                      :      0.567u      0.067s      0.098w      9 calls
| | | JK: K                         :      5.383u      0.000s      0.815w      9 calls
| | | | JK: K1                      :      5.017u      0.000s      0.763w      9 calls
| | | | JK: K2                      :      0.300u      0.000s      0.051w      9 calls
| | JK: AO2USO                      :      0.000u      0.000s      0.000w      9 calls
| HF: Form F                        :      0.050u      0.000s      0.003w      9 calls
| HF: Form D                        :      0.033u      0.000s      0.004w      9 calls
| HF: DIIS                          :      1.917u      0.200s      0.345w      8 calls
| HF: Form C                        :      1.733u      0.033s      0.267w      8 calls
SAPT(DFT):Build JK                  :      3.200u      0.050s      0.486w      1 calls
| JK: D                             :      0.000u      0.000s      0.001w      1 calls
| JK: USO2AO                        :      0.000u      0.000s      0.001w      1 calls
| JK: JK                            :      3.000u      0.033s      0.452w      1 calls
| | JK: J                           :      0.367u      0.033s      0.060w      1 calls
| | | JK: J1                        :      0.183u      0.033s      0.030w      3 calls
| | | JK: J2                        :      0.183u      0.000s      0.028w      3 calls
| | JK: K                           :      2.600u      0.000s      0.388w      1 calls
| | | JK: K1                        :      2.400u      0.000s      0.358w      6 calls
| | | JK: K2                        :      0.200u      0.000s      0.030w      3 calls
| JK: AO2USO                        :      0.000u      0.000s      0.000w      1 calls
SAPT(DFT):elst                      :      0.017u      0.000s      0.000w      1 calls
SAPT(DFT):exch                      :      2.800u      0.050s      0.427w      1 calls
| JK: D                             :      0.017u      0.000s      0.001w      1 calls
| JK: USO2AO                        :      0.000u      0.000s      0.000w      1 calls
| JK: JK                            :      2.667u      0.033s      0.407w      1 calls
| | JK: J                           :      0.417u      0.017s      0.065w      1 calls
| | | JK: J1                        :      0.200u      0.017s      0.033w      3 calls
| | | JK: J2                        :      0.200u      0.000s      0.030w      3 calls
| | JK: K                           :      2.217u      0.017s      0.336w      1 calls
| | | JK: K1                        :      2.033u      0.000s      0.307w      6 calls
| | | JK: K2                        :      0.167u      0.017s      0.029w      3 calls
| JK: AO2USO                        :      0.000u      0.000s      0.000w      1 calls
SAPT(DFT):ind                       :    145.133u      0.433s     21.845w      1 calls
| JK: D                             :      0.083u      0.000s      0.007w     19 calls
| JK: USO2AO                        :      0.000u      0.000s      0.001w     19 calls
| JK: JK                            :     24.783u      0.233s      3.763w     19 calls
| | JK: J                           :      3.717u      0.133s      0.578w     19 calls
| | | JK: J1                        :      1.767u      0.083s      0.287w     23 calls
| | | JK: J2                        :      1.750u      0.050s      0.269w     23 calls
| | JK: K                           :     20.667u      0.050s      3.115w     19 calls
| | | JK: K1                        :     18.933u      0.017s      2.852w     45 calls
| | | JK: K2                        :      1.683u      0.033s      0.260w     23 calls
| JK: AO2USO                        :      0.000u      0.000s      0.000w     19 calls
| RV: Form Vx                       :    118.483u      0.167s     17.798w     17 calls
| | Properties                      :     33.093p                          17697 calls
| | Functional                      :      1.701p                          17697 calls
| | Derivative Properties           :     14.805p                          17697 calls
| | V_XCd                           :     17.144p                          17697 calls
SAPT(DFT):disp                      :    285.183u     30.067s     60.732w      1 calls
| FDDS disp                         :    236.733u     23.183s     46.745w      1 calls
| | Form FDDS object                :     99.017u     14.617s     22.078w      1 calls
| | | Form JS                       :      1.633u      0.033s      0.253w      1 calls
| | | | Libint2ERI::Libint2ERI      :      0.000u      0.000s      0.000w      4 calls
| | | DFH: initialize()             :     13.050u      1.200s      2.797w      2 calls
| | | | DFH: sparsity prep          :      1.700u      0.067s      0.491w      1 calls
| | | | | Libint2ERI::Libint2ERI    :      1.383u      0.067s      0.316w      1 calls
| | | | Libint2ERI::Libint2ERI      :      2.167u      0.067s      0.763w      6 calls
| | | | DFH: AO Construction        :      8.983u      1.033s      1.504w      2 calls
| | | DFH: transform()              :     45.350u      9.100s     11.080w      2 calls
| | | | Libint2ERI::Libint2ERI      :      2.667u      0.167s      0.650w      2 calls
| | | | DFH: Total Workflow         :     16.450u      0.933s      2.672w     18 calls
| | | | | DFH: Total Transform      :     16.450u      0.933s      2.672w     18 calls
| | | | | | DFH: 1st Contraction    :      9.867u      0.467s      1.562w      6 calls
| | | | | | DFH: 2nd Contraction    :      6.583u      0.467s      1.110w     12 calls
| | | | DFH: MO to disk, Qbs        :      0.100u      0.033s      0.019w      1 calls
| | | | DFH: MO to disk, bsQ        :      0.100u      0.017s      0.018w      1 calls
| | | | DFH: MO to disk, sbQ        :      0.083u      0.033s      0.019w      1 calls
| | | | DFH: MO to disk, Qar        :      0.217u      0.083s      0.044w      1 calls
| | | | DFH: MO to disk, arQ        :      0.200u      0.083s      0.041w      1 calls
| | | | DFH: MO to disk, raQ        :      0.200u      0.083s      0.039w      1 calls
| | | | DFH: Metric Contractions    :     24.450u      5.217s      6.165w      2 calls
| | | | | Libint2ERI::Libint2ERI    :      0.017u      0.000s      0.001w      4 calls
| | | | | DFH: Total Workflow       :     18.083u      0.533s      3.150w     12 calls
| | | | DFH: MO to disk, bbR        :      0.000u      0.017s      0.000w      1 calls
| | | | DFH: MO to disk, bsR        :      0.067u      0.017s      0.012w      1 calls
| | | | DFH: MO to disk, aaR        :      0.017u      0.000s      0.002w      1 calls
| | | | DFH: MO to disk, arR        :      0.133u      0.067s      0.029w      1 calls
| | | | DFH: MO to disk, rrR        :      0.283u      0.967s      0.554w      1 calls
| | | | DFH: MO to disk, ssR        :      0.283u      1.083s      0.616w      1 calls
| | | FDDS: QR                      :      3.000u      0.417s      0.797w      1 calls
| | | FDDS: Form X                  :     11.400u      0.800s      2.069w      1 calls
| | | FDDS: Form Y                  :     24.550u      3.067s      5.072w      1 calls
| | Form xc kernel                  :     26.200u      0.383s      5.679w      1 calls
| | | Libint2ERI::Libint2ERI        :      2.333u      0.017s      1.123w      4 calls
| | Time Integration                :    110.767u      6.867s     18.101w      1 calls
| MP2 disp                          :     48.017u      6.867s     13.919w      1 calls
| | SAPT0: DF Integrals             :     31.050u      5.233s     10.760w      1 calls
| | | Libint2ERI::Libint2ERI        :      4.500u      0.067s      2.502w     10 calls
| | SAPT0: W Integrals              :      0.017u      0.017s      0.039w      1 calls
| | SAPT0: Exch-Disp20 N^5          :      1.900u      0.550s      0.657w      1 calls
| | SAPT0: Exch-Disp20 N^4          :     14.683u      1.050s      2.363w      1 calls

**************************************************************************************

Host: cmpsrv002

Timers On : Wed Sep 18 19:47:56 2024
Timers Off: Wed Sep 18 19:47:57 2024

Wall Time:        0.82 seconds

                                                       Time (seconds)
Module                                       User      System        Wall        Calls

--------------------------------------------------------------------------------------

**************************************************************************************

Host: cmpsrv002

Timers On : Wed Sep 18 19:47:56 2024
Timers Off: Wed Sep 18 19:47:57 2024

Wall Time:        0.95 seconds

                                                       Time (seconds)
Module                                       User      System        Wall        Calls

--------------------------------------------------------------------------------------

**************************************************************************************

Host: cmpsrv002

Timers On : Wed Sep 18 19:47:56 2024
Timers Off: Wed Sep 18 19:47:57 2024

Wall Time:        0.88 seconds

                                                       Time (seconds)
Module                                       User      System        Wall        Calls

--------------------------------------------------------------------------------------

**************************************************************************************

Host: cmpsrv002

Timers On : Wed Sep 18 19:47:56 2024
Timers Off: Wed Sep 18 19:47:57 2024

Wall Time:        1.05 seconds

                                                       Time (seconds)
Module                                       User      System        Wall        Calls

--------------------------------------------------------------------------------------

**************************************************************************************

Host: cmpsrv002

Timers On : Wed Sep 18 19:47:56 2024
Timers Off: Wed Sep 18 19:47:57 2024

Wall Time:        1.12 seconds

                                                       Time (seconds)
Module                                       User      System        Wall        Calls

--------------------------------------------------------------------------------------

**************************************************************************************

Host: cmpsrv002

Timers On : Wed Sep 18 19:47:56 2024
Timers Off: Wed Sep 18 19:47:57 2024

Wall Time:        1.09 seconds

                                                       Time (seconds)
Module                                       User      System        Wall        Calls

--------------------------------------------------------------------------------------

**************************************************************************************

Host: cmpsrv002

Timers On : Wed Sep 18 19:47:56 2024
Timers Off: Wed Sep 18 19:47:57 2024

Wall Time:        1.17 seconds

                                                       Time (seconds)
Module                                       User      System        Wall        Calls

--------------------------------------------------------------------------------------

**************************************************************************************

Host: cmpsrv002

Timers On : Wed Sep 18 19:47:56 2024
Timers Off: Wed Sep 18 19:47:57 2024

Wall Time:        1.13 seconds

                                                       Time (seconds)
Module                                       User      System        Wall        Calls

--------------------------------------------------------------------------------------

**************************************************************************************

Host: cmpsrv002

Timers On : Wed Sep 18 19:47:56 2024
Timers Off: Wed Sep 18 19:47:57 2024

Wall Time:        1.11 seconds

                                                       Time (seconds)
Module                                       User      System        Wall        Calls

--------------------------------------------------------------------------------------

**************************************************************************************

Host: cmpsrv002

Timers On : Wed Sep 18 19:47:56 2024
Timers Off: Wed Sep 18 19:47:57 2024

Wall Time:        1.21 seconds

                                                       Time (seconds)
Module                                       User      System        Wall        Calls

--------------------------------------------------------------------------------------

**************************************************************************************

Host: cmpsrv002

Timers On : Wed Sep 18 19:47:56 2024
Timers Off: Wed Sep 18 19:47:57 2024

Wall Time:        1.27 seconds

                                                       Time (seconds)
Module                                       User      System        Wall        Calls

--------------------------------------------------------------------------------------

**************************************************************************************

Host: cmpsrv002

Timers On : Wed Sep 18 19:47:56 2024
Timers Off: Wed Sep 18 19:47:57 2024

Wall Time:        1.14 seconds

                                                       Time (seconds)
Module                                       User      System        Wall        Calls

--------------------------------------------------------------------------------------

**************************************************************************************

Host: cmpsrv002

Timers On : Wed Sep 18 19:47:56 2024
Timers Off: Wed Sep 18 19:47:57 2024

Wall Time:        1.13 seconds

                                                       Time (seconds)
Module                                       User      System        Wall        Calls

--------------------------------------------------------------------------------------

**************************************************************************************

Host: cmpsrv002

Timers On : Wed Sep 18 19:47:56 2024
Timers Off: Wed Sep 18 19:47:57 2024

Wall Time:        1.18 seconds

                                                       Time (seconds)
Module                                       User      System        Wall        Calls

--------------------------------------------------------------------------------------

**************************************************************************************

Host: cmpsrv002

Timers On : Wed Sep 18 19:47:56 2024
Timers Off: Wed Sep 18 19:47:57 2024

Wall Time:        1.19 seconds

                                                       Time (seconds)
Module                                       User      System        Wall        Calls

--------------------------------------------------------------------------------------

**************************************************************************************

Host: cmpsrv002

Timers On : Wed Sep 18 19:47:56 2024
Timers Off: Wed Sep 18 19:47:57 2024

Wall Time:        1.32 seconds

                                                       Time (seconds)
Module                                       User      System        Wall        Calls

--------------------------------------------------------------------------------------

**************************************************************************************

Host: cmpsrv002

Timers On : Wed Sep 18 19:47:56 2024
Timers Off: Wed Sep 18 19:47:57 2024

Wall Time:        1.33 seconds

                                                       Time (seconds)
Module                                       User      System        Wall        Calls

--------------------------------------------------------------------------------------

**************************************************************************************

Host: cmpsrv002

Timers On : Wed Sep 18 19:47:56 2024
Timers Off: Wed Sep 18 19:47:57 2024

Wall Time:        1.38 seconds

                                                       Time (seconds)
Module                                       User      System        Wall        Calls

--------------------------------------------------------------------------------------

**************************************************************************************

Host: cmpsrv002

Timers On : Wed Sep 18 19:47:56 2024
Timers Off: Wed Sep 18 19:47:57 2024

Wall Time:        1.36 seconds

                                                       Time (seconds)
Module                                       User      System        Wall        Calls

--------------------------------------------------------------------------------------

**************************************************************************************

Host: cmpsrv002

Timers On : Wed Sep 18 19:47:56 2024
Timers Off: Wed Sep 18 19:47:57 2024

Wall Time:        1.35 seconds

                                                       Time (seconds)
Module                                       User      System        Wall        Calls

--------------------------------------------------------------------------------------

**************************************************************************************

Host: cmpsrv002

Timers On : Wed Sep 18 19:47:56 2024
Timers Off: Wed Sep 18 19:47:57 2024

Wall Time:        1.41 seconds

                                                       Time (seconds)
Module                                       User      System        Wall        Calls

--------------------------------------------------------------------------------------

**************************************************************************************

Host: cmpsrv002

Timers On : Wed Sep 18 19:47:56 2024
Timers Off: Wed Sep 18 19:47:58 2024

Wall Time:        1.42 seconds

                                                       Time (seconds)
Module                                       User      System        Wall        Calls

--------------------------------------------------------------------------------------

**************************************************************************************

Host: cmpsrv002

Timers On : Wed Sep 18 19:47:56 2024
Timers Off: Wed Sep 18 19:47:58 2024

Wall Time:        1.42 seconds

                                                       Time (seconds)
Module                                       User      System        Wall        Calls

--------------------------------------------------------------------------------------

**************************************************************************************

Host: cmpsrv002

Timers On : Wed Sep 18 19:47:56 2024
Timers Off: Wed Sep 18 19:47:58 2024

Wall Time:        1.30 seconds

                                                       Time (seconds)
Module                                       User      System        Wall        Calls

--------------------------------------------------------------------------------------

**************************************************************************************

Host: cmpsrv002

Timers On : Wed Sep 18 19:47:56 2024
Timers Off: Wed Sep 18 19:47:58 2024

Wall Time:        1.39 seconds

                                                       Time (seconds)
Module                                       User      System        Wall        Calls

--------------------------------------------------------------------------------------

**************************************************************************************

Host: cmpsrv002

Timers On : Wed Sep 18 19:47:56 2024
Timers Off: Wed Sep 18 19:47:58 2024

Wall Time:        1.51 seconds

                                                       Time (seconds)
Module                                       User      System        Wall        Calls

--------------------------------------------------------------------------------------

**************************************************************************************

Host: cmpsrv002

Timers On : Wed Sep 18 19:47:56 2024
Timers Off: Wed Sep 18 19:47:58 2024

Wall Time:        1.50 seconds

                                                       Time (seconds)
Module                                       User      System        Wall        Calls

--------------------------------------------------------------------------------------

**************************************************************************************

Host: cmpsrv002

Timers On : Wed Sep 18 19:47:56 2024
Timers Off: Wed Sep 18 19:47:58 2024

Wall Time:        1.49 seconds

                                                       Time (seconds)
Module                                       User      System        Wall        Calls

--------------------------------------------------------------------------------------

**************************************************************************************

Host: cmpsrv002

Timers On : Wed Sep 18 19:47:56 2024
Timers Off: Wed Sep 18 19:47:58 2024

Wall Time:        1.51 seconds

                                                       Time (seconds)
Module                                       User      System        Wall        Calls

--------------------------------------------------------------------------------------

**************************************************************************************

Host: cmpsrv002

Timers On : Wed Sep 18 19:47:56 2024
Timers Off: Wed Sep 18 19:47:58 2024

Wall Time:        1.54 seconds

                                                       Time (seconds)
Module                                       User      System        Wall        Calls

--------------------------------------------------------------------------------------

**************************************************************************************

Host: cmpsrv002

Timers On : Wed Sep 18 19:47:56 2024
Timers Off: Wed Sep 18 19:47:58 2024

Wall Time:        1.58 seconds

                                                       Time (seconds)
Module                                       User      System        Wall        Calls

--------------------------------------------------------------------------------------

**************************************************************************************

Host: cmpsrv002

Timers On : Wed Sep 18 19:47:56 2024
Timers Off: Wed Sep 18 19:47:58 2024

Wall Time:        1.50 seconds

                                                       Time (seconds)
Module                                       User      System        Wall        Calls

--------------------------------------------------------------------------------------

**************************************************************************************

Host: cmpsrv002

Timers On : Wed Sep 18 19:47:56 2024
Timers Off: Wed Sep 18 19:47:58 2024

Wall Time:        1.61 seconds

                                                       Time (seconds)
Module                                       User      System        Wall        Calls

--------------------------------------------------------------------------------------

**************************************************************************************

Host: cmpsrv002

Timers On : Wed Sep 18 19:47:56 2024
Timers Off: Wed Sep 18 19:47:58 2024

Wall Time:        1.53 seconds

                                                       Time (seconds)
Module                                       User      System        Wall        Calls

--------------------------------------------------------------------------------------

**************************************************************************************


Host: cmpsrv002

Host: cmpsrv002

Timers On : Wed Sep 18 19:47:56 2024
Timers On : Wed Sep 18 19:47:56 2024
Timers Off: Wed Sep 18 19:47:58 2024
Timers Off: Wed Sep 18 19:47:58 2024

Wall Time:        1.68 seconds


Wall Time:        1.58 seconds

                                                       Time (seconds)
                                                       Time (seconds)
Module                                       User      System        Wall        Calls
Module                                       User      System        Wall        Calls

--------------------------------------------------------------------------------------

--------------------------------------------------------------------------------------

**************************************************************************************

**************************************************************************************

Host: cmpsrv002

Timers On : Wed Sep 18 19:47:56 2024
Timers Off: Wed Sep 18 19:47:58 2024

Wall Time:        1.61 seconds

                                                       Time (seconds)
Module                                       User      System        Wall        Calls

--------------------------------------------------------------------------------------

**************************************************************************************

Host: cmpsrv002

Timers On : Wed Sep 18 19:47:56 2024
Timers Off: Wed Sep 18 19:47:58 2024

Wall Time:        1.69 seconds

                                                       Time (seconds)
Module                                       User      System        Wall        Calls

--------------------------------------------------------------------------------------

**************************************************************************************

Host: cmpsrv002

Timers On : Wed Sep 18 19:47:56 2024
Timers Off: Wed Sep 18 19:47:58 2024

Wall Time:        1.67 seconds

                                                       Time (seconds)
Module                                       User      System        Wall        Calls

--------------------------------------------------------------------------------------

**************************************************************************************

Host: cmpsrv002

Timers On : Wed Sep 18 19:47:56 2024
Timers Off: Wed Sep 18 19:51:04 2024

Wall Time:      187.91 seconds

                                                       Time (seconds)
Module                                       User      System        Wall        Calls
SAPT(DFT):Dimer SCF                 :     45.333u      3.717s      9.903w      1 calls
Libint2ERI::Libint2ERI              :     21.733u      0.467s     11.912w     61 calls
JK: (A|mn)                          :      6.183u      1.800s      1.596w      5 calls
JK: (A|Q)^-1/2                      :      5.033u      0.367s      1.101w      5 calls
JK: (Q|mn)                          :      6.933u      0.850s      1.369w      5 calls
HF: Form core H                     :     21.583u      2.150s      4.035w      5 calls
HF: Form S/X                        :      1.650u      0.083s      0.325w      5 calls
HF: Guess                           :     16.967u      1.650s      3.856w      5 calls
SAD Guess                           :     16.867u      1.633s      3.847w      5 calls
HF: Form G                          :    117.983u      1.583s     20.090w     55 calls
JK: D                               :      0.800u      0.050s      0.146w    100 calls
JK: USO2AO                          :      0.117u      0.000s      0.005w    100 calls
JK: JK                              :    139.683u      3.067s     25.195w    100 calls
JK: J                               :     23.383u      1.950s      4.421w    100 calls
JK: J1                              :     11.467u      1.067s      2.169w    116 calls
JK: J2                              :     10.933u      0.867s      2.054w    116 calls
JK: K                               :    114.100u      0.933s     20.366w    100 calls
JK: K1                              :    101.117u      0.433s     17.979w    175 calls
JK: K2                              :     12.533u      0.433s      2.373w    116 calls
JK: AO2USO                          :      0.000u      0.000s      0.000w    100 calls
HF: Form F                          :      0.450u      0.000s      0.082w     55 calls
HF: Form D                          :      0.400u      0.050s      0.103w     55 calls
HF: DIIS                            :     13.600u      1.600s      2.945w     50 calls
HF: Form C                          :     16.883u      1.050s      3.258w     50 calls
SAPT(DFT):Monomer A SCF             :     39.683u      3.550s      9.202w      1 calls
SAPT(DFT):Monomer B SCF             :     25.833u      2.200s      6.207w      1 calls
SAPT(HF):elst                       :      0.000u      0.000s      0.001w      1 calls
SAPT(HF):exch                       :      4.967u      0.133s      0.887w      1 calls
SAPT(HF):ind                        :     44.883u      0.967s      7.948w      1 calls
SAPT(DFT): Monomer A DFT            :     75.633u      4.417s     15.641w      1 calls
V: Grid                             :      1.167u      0.033s      0.203w      2 calls
build grid                          :      0.550u      0.000s      0.094w      2 calls
post-process grid                   :      0.617u      0.033s      0.109w      2 calls
RV: Form V                          :     66.633u      0.033s     10.920w     20 calls
Properties                          :     76.425p                          38517 calls
Functional                          :      6.410p                          38517 calls
V_xc                                :     20.427p                          20820 calls
SAPT(DFT): Monomer B DFT            :     56.833u      2.350s     11.937w      1 calls
SAPT(DFT):Build JK                  :      4.683u      0.100s      0.813w      1 calls
SAPT(DFT):elst                      :      0.017u      0.017s      0.004w      1 calls
SAPT(DFT):exch                      :      4.667u      0.083s      0.798w      1 calls
SAPT(DFT):ind                       :    201.333u      1.233s     37.284w      1 calls
RV: Form Vx                         :    163.150u      0.167s     29.773w     17 calls
Derivative Properties               :     25.110p                          17697 calls
V_XCd                               :     27.045p                          17697 calls
SAPT(DFT):disp                      :    371.350u     34.517s     83.806w      1 calls
FDDS disp                           :    306.117u     27.133s     66.879w      1 calls
Form FDDS object                    :    119.883u     16.333s     30.795w      1 calls
Form JS                             :      2.600u      0.117s      0.437w      1 calls
DFH: initialize()                   :     14.500u      1.133s      4.251w      2 calls
DFH: sparsity prep                  :      1.717u      0.067s      0.513w      1 calls
DFH: AO Construction                :     10.583u      1.017s      2.592w      2 calls
DFH: transform()                    :     52.383u     10.300s     16.466w      2 calls
DFH: Total Workflow                 :     36.550u      1.967s      8.133w     30 calls
DFH: Total Transform                :     20.350u      1.267s      4.753w     18 calls
DFH: 1st Contraction                :     11.933u      0.633s      2.896w      6 calls
DFH: 2nd Contraction                :      8.383u      0.633s      1.857w     12 calls
DFH: MO to disk, Qbs                :      0.083u      0.033s      0.034w      1 calls
DFH: MO to disk, bsQ                :      0.083u      0.033s      0.040w      1 calls
DFH: MO to disk, sbQ                :      0.050u      0.050s      0.020w      1 calls
DFH: MO to disk, Qar                :      0.133u      0.067s      0.044w      1 calls
DFH: MO to disk, arQ                :      0.133u      0.067s      0.043w      1 calls
DFH: MO to disk, raQ                :      0.150u      0.067s      0.047w      1 calls
DFH: Metric Contractions            :     28.317u      6.117s      8.607w      2 calls
DFH: MO to disk, bbR                :      0.000u      0.000s      0.001w      1 calls
DFH: MO to disk, bsR                :      0.017u      0.033s      0.012w      1 calls
DFH: MO to disk, aaR                :      0.000u      0.017s      0.002w      1 calls
DFH: MO to disk, arR                :      0.183u      0.067s      0.046w      1 calls
DFH: MO to disk, rrR                :      0.350u      1.033s      0.669w      1 calls
DFH: MO to disk, ssR                :      0.133u      1.067s      0.919w      1 calls
FDDS: QR                            :      3.267u      0.383s      0.674w      1 calls
FDDS: Form X                        :     15.500u      1.050s      2.775w      1 calls
FDDS: Form Y                        :     31.583u      3.350s      6.185w      1 calls
Form xc kernel                      :     43.133u      0.850s      8.174w      1 calls
Time Integration                    :    142.283u      8.600s     27.137w      1 calls
MP2 disp                            :     64.617u      7.317s     16.813w      1 calls
SAPT0: DF Integrals                 :     38.467u      4.783s     11.127w      1 calls
SAPT0: W Integrals                  :      0.017u      0.033s      0.034w      1 calls
SAPT0: Exch-Disp20 N^5              :      2.617u      0.583s      0.912w      1 calls
SAPT0: Exch-Disp20 N^4              :     23.233u      1.900s      4.668w      1 calls

--------------------------------------------------------------------------------------
SAPT(DFT):Dimer SCF                 :     45.333u      3.717s      9.903w      1 calls
| Libint2ERI::Libint2ERI            :      1.333u      0.067s      0.829w      2 calls
| JK: (A|mn)                        :      1.267u      0.433s      0.306w      1 calls
| JK: (A|Q)^-1/2                    :      0.833u      0.083s      0.183w      1 calls
| | Libint2ERI::Libint2ERI          :      0.017u      0.017s      0.004w      4 calls
| JK: (Q|mn)                        :      1.617u      0.117s      0.285w      1 calls
| HF: Form core H                   :      4.717u      0.417s      0.780w      1 calls
| HF: Form S/X                      :      0.233u      0.000s      0.039w      1 calls
| HF: Guess                         :      5.850u      0.567s      1.274w      1 calls
| | SAD Guess                       :      5.833u      0.567s      1.271w      1 calls
| HF: Form G                        :     15.500u      0.450s      2.839w     13 calls
| | JK: D                           :      0.200u      0.000s      0.039w     13 calls
| | JK: USO2AO                      :      0.017u      0.000s      0.000w     13 calls
| | JK: JK                          :     14.933u      0.433s      2.719w     13 calls
| | | JK: J                         :      2.317u      0.183s      0.429w     13 calls
| | | | JK: J1                      :      1.133u      0.117s      0.212w     13 calls
| | | | JK: J2                      :      1.117u      0.067s      0.202w     13 calls
| | | JK: K                         :     12.267u      0.217s      2.222w     13 calls
| | | | JK: K1                      :      9.683u      0.100s      1.739w     13 calls
| | | | JK: K2                      :      2.550u      0.083s      0.481w     13 calls
| | JK: AO2USO                      :      0.000u      0.000s      0.000w     13 calls
| HF: Form F                        :      0.083u      0.000s      0.006w     13 calls
| HF: Form D                        :      0.200u      0.033s      0.053w     13 calls
| HF: DIIS                          :      4.650u      0.500s      1.125w     12 calls
| HF: Form C                        :      5.317u      0.417s      1.087w     12 calls
SAPT(DFT):Monomer A SCF             :     39.683u      3.550s      9.202w      1 calls
| Libint2ERI::Libint2ERI            :      1.367u      0.000s      1.054w      2 calls
| JK: (A|mn)                        :      1.267u      0.383s      0.297w      1 calls
| JK: (A|Q)^-1/2                    :      0.833u      0.050s      0.155w      1 calls
| | Libint2ERI::Libint2ERI          :      0.000u      0.000s      0.002w      4 calls
| JK: (Q|mn)                        :      1.417u      0.250s      0.279w      1 calls
| HF: Form core H                   :      4.100u      0.433s      0.699w      1 calls
| HF: Form S/X                      :      0.233u      0.000s      0.036w      1 calls
| HF: Guess                         :      4.450u      0.467s      0.915w      1 calls
| | SAD Guess                       :      4.417u      0.467s      0.913w      1 calls
| HF: Form G                        :     12.700u      0.450s      2.439w     12 calls
| | JK: D                           :      0.050u      0.000s      0.021w     12 calls
| | JK: USO2AO                      :      0.017u      0.000s      0.000w     12 calls
| | JK: JK                          :     12.317u      0.417s      2.345w     12 calls
| | | JK: J                         :      2.400u      0.267s      0.469w     12 calls
| | | | JK: J1                      :      1.083u      0.117s      0.214w     12 calls
| | | | JK: J2                      :      1.217u      0.150s      0.240w     12 calls
| | | JK: K                         :      9.683u      0.133s      1.824w     12 calls
| | | | JK: K1                      :      8.117u      0.050s      1.521w     12 calls
| | | | JK: K2                      :      1.533u      0.067s      0.302w     12 calls
| | JK: AO2USO                      :      0.000u      0.000s      0.000w     12 calls
| HF: Form F                        :      0.133u      0.000s      0.029w     12 calls
| HF: Form D                        :      0.050u      0.017s      0.023w     12 calls
| HF: DIIS                          :      3.967u      0.483s      0.912w     11 calls
| HF: Form C                        :      4.717u      0.283s      1.009w     11 calls
SAPT(DFT):Monomer B SCF             :     25.833u      2.200s      6.207w      1 calls
| Libint2ERI::Libint2ERI            :      2.033u      0.000s      1.217w      2 calls
| JK: (A|mn)                        :      1.267u      0.317s      0.303w      1 calls
| JK: (A|Q)^-1/2                    :      0.517u      0.017s      0.081w      1 calls
| | Libint2ERI::Libint2ERI          :      0.017u      0.000s      0.002w      4 calls
| JK: (Q|mn)                        :      1.450u      0.167s      0.262w      1 calls
| HF: Form core H                   :      4.267u      0.417s      0.807w      1 calls
| HF: Form S/X                      :      0.383u      0.033s      0.073w      1 calls
| HF: Guess                         :      1.283u      0.100s      0.224w      1 calls
| | SAD Guess                       :      1.250u      0.100s      0.222w      1 calls
| HF: Form G                        :      6.833u      0.117s      1.086w     10 calls
| | JK: D                           :      0.067u      0.000s      0.006w     10 calls
| | JK: USO2AO                      :      0.017u      0.000s      0.000w     10 calls
| | JK: JK                          :      6.750u      0.117s      1.073w     10 calls
| | | JK: J                         :      1.517u      0.100s      0.255w     10 calls
| | | | JK: J1                      :      0.817u      0.050s      0.130w     10 calls
| | | | JK: J2                      :      0.683u      0.050s      0.115w     10 calls
| | | JK: K                         :      5.150u      0.017s      0.801w     10 calls
| | | | JK: K1                      :      4.750u      0.000s      0.740w     10 calls
| | | | JK: K2                      :      0.333u      0.017s      0.060w     10 calls
| | JK: AO2USO                      :      0.000u      0.000s      0.000w     10 calls
| HF: Form F                        :      0.167u      0.000s      0.026w     10 calls
| HF: Form D                        :      0.033u      0.000s      0.005w     10 calls
| HF: DIIS                          :      1.467u      0.183s      0.259w      9 calls
| HF: Form C                        :      2.300u      0.100s      0.373w      9 calls
JK: D                               :      0.017u      0.000s      0.002w      1 calls
JK: USO2AO                          :      0.000u      0.000s      0.001w      1 calls
JK: JK                              :      3.867u      0.033s      0.770w      1 calls
| JK: J                             :      0.333u      0.017s      0.094w      1 calls
| | JK: J1                          :      0.150u      0.000s      0.039w      3 calls
| | JK: J2                          :      0.183u      0.017s      0.051w      3 calls
| JK: K                             :      3.517u      0.000s      0.671w      1 calls
| | JK: K1                          :      3.267u      0.000s      0.623w      6 calls
| | JK: K2                          :      0.250u      0.000s      0.048w      3 calls
JK: AO2USO                          :      0.000u      0.000s      0.000w      1 calls
[...]
| Libint2ERI::Libint2ERI            :      1.550u      0.000s      1.392w      2 calls
| JK: (A|mn)                        :      1.333u      0.467s      0.471w      1 calls
| JK: (A|Q)^-1/2                    :      1.050u      0.100s      0.280w      1 calls
| | Libint2ERI::Libint2ERI          :      0.017u      0.000s      0.002w      4 calls
| JK: (Q|mn)                        :      1.583u      0.217s      0.477w      1 calls
| HF: Form core H                   :      4.333u      0.433s      0.888w      1 calls
| HF: Form S/X                      :      0.250u      0.000s      0.037w      1 calls
| HF: Guess                         :      4.767u      0.467s      1.153w      1 calls
| | SAD Guess                       :      4.650u      0.467s      1.132w      1 calls
| HF: Form G                        :     11.733u      0.350s      2.103w     12 calls
| | JK: D                           :      0.133u      0.000s      0.026w     12 calls
| | JK: USO2AO                      :      0.000u      0.000s      0.000w     12 calls
| | JK: JK                          :     11.183u      0.300s      1.975w     12 calls
| | | JK: J                         :      2.017u      0.183s      0.353w     12 calls
| | | | JK: J1                      :      1.033u      0.050s      0.180w     12 calls
| | | | JK: J2                      :      0.933u      0.117s      0.159w     12 calls
| | | JK: K                         :      8.933u      0.117s      1.586w     12 calls
| | | | JK: K1                      :      7.100u      0.050s      1.243w     12 calls
| | | | JK: K2                      :      1.733u      0.067s      0.342w     12 calls
| | JK: AO2USO                      :      0.000u      0.000s      0.000w     12 calls
| HF: Form F                        :      0.067u      0.000s      0.014w     12 calls
| HF: Form D                        :      0.000u      0.000s      0.005w     12 calls
| HF: DIIS                          :      2.550u      0.367s      0.511w     11 calls
| HF: Form C                        :      3.417u      0.217s      0.604w     11 calls
SAPT(DFT):Monomer B SCF             :     27.633u      2.300s      6.205w      1 calls
| Libint2ERI::Libint2ERI            :      1.067u      0.000s      0.782w      2 calls
| JK: (A|mn)                        :      1.083u      0.217s      0.310w      1 calls
| JK: (A|Q)^-1/2                    :      0.717u      0.067s      0.192w      1 calls
| | Libint2ERI::Libint2ERI          :      0.017u      0.000s      0.003w      4 calls
| JK: (Q|mn)                        :      1.183u      0.117s      0.226w      1 calls
| HF: Form core H                   :      4.183u      0.383s      0.735w      1 calls
| HF: Form S/X                      :      0.617u      0.033s      0.125w      1 calls
| HF: Guess                         :      1.833u      0.150s      0.349w      1 calls
| | SAD Guess                       :      1.800u      0.150s      0.347w      1 calls
| HF: Form G                        :      8.600u      0.217s      1.407w     10 calls
| | JK: D                           :      0.000u      0.000s      0.004w     10 calls
| | JK: USO2AO                      :      0.000u      0.000s      0.000w     10 calls
| | JK: JK                          :      8.500u      0.217s      1.379w     10 calls
| | | JK: J                         :      2.517u      0.217s      0.428w     10 calls
| | | | JK: J1                      :      1.233u      0.117s      0.206w     10 calls
| | | | JK: J2                      :      1.200u      0.100s      0.207w     10 calls
| | | JK: K                         :      5.833u      0.000s      0.930w     10 calls
| | | | JK: K1                      :      5.283u      0.000s      0.843w     10 calls
| | | | JK: K2                      :      0.517u      0.000s      0.086w     10 calls
| | JK: AO2USO                      :      0.000u      0.000s      0.000w     10 calls
| HF: Form F                        :      0.067u      0.000s      0.016w     10 calls
| HF: Form D                        :      0.033u      0.000s      0.004w     10 calls
| HF: DIIS                          :      2.000u      0.267s      0.354w      9 calls
| HF: Form C                        :      2.417u      0.083s      0.389w      9 calls
JK: D                               :      0.017u      0.000s      0.001w      1 calls
JK: USO2AO                          :      0.000u      0.000s      0.001w      1 calls
JK: JK                              :      4.583u      0.067s      0.936w      1 calls
| JK: J                             :      0.667u      0.050s      0.127w      1 calls
| | JK: J1                          :      0.267u      0.017s      0.055w      3 calls
| | JK: J2                          :      0.383u      0.033s      0.068w      3 calls
| JK: K                             :      3.867u      0.017s      0.795w      1 calls
| | JK: K1                          :      3.533u      0.000s      0.719w      6 calls
| | JK: K2                          :      0.317u      0.017s      0.076w      3 calls
JK: AO2USO                          :      0.000u      0.000s      0.000w      1 calls
SAPT(HF):elst                       :      0.067u      0.000s      0.021w      1 calls
SAPT(HF):exch                       :      6.033u      0.117s      1.084w      1 calls
| JK: D                             :      0.000u      0.017s      0.001w      1 calls
| JK: USO2AO                        :      0.000u      0.000s      0.000w      1 calls
| JK: JK                            :      5.767u      0.083s      1.034w      1 calls
| | JK: J                           :      0.733u      0.067s      0.150w      1 calls
| | | JK: J1                        :      0.333u      0.033s      0.074w      3 calls
| | | JK: J2                        :      0.350u      0.033s      0.072w      3 calls
| | JK: K                           :      4.950u      0.017s      0.864w      1 calls
| | | JK: K1                        :      4.633u      0.000s      0.810w      6 calls
| | | JK: K2                        :      0.300u      0.017s      0.054w      3 calls
| JK: AO2USO                        :      0.000u      0.000s      0.000w      1 calls
SAPT(HF):ind                        :     50.850u      1.317s      9.242w      1 calls
| JK: D                             :      0.067u      0.017s      0.023w     22 calls
| JK: USO2AO                        :      0.017u      0.000s      0.001w     22 calls
| JK: JK                            :     44.900u      0.883s      8.079w     22 calls
| | JK: J                           :      6.583u      0.533s      1.285w     22 calls
| | | JK: J1                        :      3.183u      0.233s      0.630w     26 calls
| | | JK: J2                        :      3.200u      0.267s      0.604w     26 calls
| | JK: K                           :     37.650u      0.267s      6.686w     22 calls
| | | JK: K1                        :     34.300u      0.067s      6.042w     51 calls
| | | JK: K2                        :      3.300u      0.200s      0.641w     26 calls
| JK: AO2USO                        :      0.000u      0.000s      0.000w     22 calls
SAPT(DFT): Monomer A DFT            :     76.417u      4.117s     15.817w      1 calls
| V: Grid                           :      0.517u      0.017s      0.116w      1 calls
| | build grid                      :      0.233u      0.000s      0.044w      1 calls
| | post-process grid               :      0.283u      0.017s      0.072w      1 calls
| Libint2ERI::Libint2ERI            :      1.483u      0.017s      0.883w      2 calls
| JK: (A|mn)                        :      1.400u      0.300s      0.379w      1 calls
| JK: (A|Q)^-1/2                    :      1.017u      0.100s      0.215w      1 calls
| | Libint2ERI::Libint2ERI          :      0.017u      0.017s      0.005w      4 calls
| JK: (Q|mn)                        :      1.300u      0.150s      0.267w      1 calls
| HF: Form core H                   :      4.767u      0.533s      0.974w      1 calls
| HF: Form S/X                      :      0.300u      0.017s      0.051w      1 calls
| HF: Guess                         :      4.000u      0.267s      0.974w      1 calls
| | SAD Guess                       :      3.983u      0.267s      0.972w      1 calls
| HF: Form G                        :     48.700u      0.433s      8.207w     11 calls
| | RV: Form V                      :     38.367u      0.250s      6.506w     11 calls
| | | Properties                    :     10.236p                          11451 calls
| | | Functional                    :      2.475p                          11451 calls
| | | V_xc                          :     11.839p                          11451 calls
| | JK: D                           :      0.000u      0.000s      0.005w     11 calls
| | JK: USO2AO                      :      0.000u      0.000s      0.001w     11 calls
| | JK: JK                          :     10.050u      0.133s      1.629w     11 calls
| | | JK: J                         :      2.050u      0.100s      0.343w     11 calls
| | | | JK: J1                      :      0.883u      0.033s      0.154w     11 calls
| | | | JK: J2                      :      1.033u      0.067s      0.176w     11 calls
| | | JK: K                         :      7.717u      0.017s      1.240w     11 calls
| | | | JK: K1                      :      6.367u      0.017s      1.025w     11 calls
| | | | JK: K2                      :      1.300u      0.000s      0.213w     11 calls
| | JK: AO2USO                      :      0.000u      0.000s      0.000w     11 calls
| HF: Form F                        :      0.067u      0.017s      0.015w     11 calls
| HF: Form D                        :      0.117u      0.000s      0.019w     11 calls
| HF: DIIS                          :      2.267u      0.200s      0.405w     10 calls
| HF: Form C                        :      3.083u      0.083s      0.533w     10 calls
SAPT(DFT): Monomer B DFT            :     65.517u      2.467s     14.612w      1 calls
| V: Grid                           :      0.650u      0.033s      0.139w      1 calls
| | build grid                      :      0.317u      0.033s      0.073w      1 calls
| | post-process grid               :      0.317u      0.000s      0.065w      1 calls
| Libint2ERI::Libint2ERI            :      1.317u      0.000s      0.888w      2 calls
| JK: (A|mn)                        :      1.117u      0.000s      0.254w      1 calls
| JK: (A|Q)^-1/2                    :      0.867u      0.050s      0.174w      1 calls
| | Libint2ERI::Libint2ERI          :      0.000u      0.000s      0.003w      4 calls
| JK: (Q|mn)                        :      1.033u      0.117s      0.183w      1 calls
| HF: Form core H                   :      4.917u      0.467s      1.113w      1 calls
| HF: Form S/X                      :      0.667u      0.050s      0.143w      1 calls
| HF: Guess                         :      1.900u      0.183s      0.384w      1 calls
| | SAD Guess                       :      1.883u      0.183s      0.382w      1 calls
| HF: Form G                        :     40.567u      0.283s      7.986w      9 calls
| | RV: Form V                      :     33.083u      0.017s      6.512w      9 calls
| | | Properties                    :     10.718p                           9369 calls
| | | Functional                    :      2.442p                           9369 calls
| | | V_xc                          :     12.437p                           9369 calls
| | JK: D                           :      0.017u      0.000s      0.007w      9 calls
| | JK: USO2AO                      :      0.000u      0.000s      0.000w      9 calls
| | JK: JK                          :      7.167u      0.233s      1.395w      9 calls
| | | JK: J                         :      1.483u      0.150s      0.289w      9 calls
| | | | JK: J1                      :      0.750u      0.100s      0.144w      9 calls
| | | | JK: J2                      :      0.683u      0.050s      0.137w      9 calls
| | | JK: K                         :      5.550u      0.067s      1.087w      9 calls
| | | | JK: K1                      :      5.067u      0.067s      0.985w      9 calls
| | | | JK: K2                      :      0.467u      0.000s      0.101w      9 calls
| | JK: AO2USO                      :      0.000u      0.000s      0.000w      9 calls
| HF: Form F                        :      0.067u      0.000s      0.016w      9 calls
| HF: Form D                        :      0.050u      0.017s      0.015w      9 calls
| HF: DIIS                          :      2.317u      0.267s      0.507w      8 calls
| HF: Form C                        :      3.350u      0.233s      0.701w      8 calls
SAPT(DFT):Build JK                  :      4.383u      0.067s      0.909w      1 calls
| JK: D                             :      0.017u      0.000s      0.001w      1 calls
| JK: USO2AO                        :      0.000u      0.000s      0.001w      1 calls
| JK: JK                            :      4.000u      0.050s      0.814w      1 calls
| | JK: J                           :      0.300u      0.017s      0.073w      1 calls
| | | JK: J1                        :      0.133u      0.017s      0.037w      3 calls
| | | JK: J2                        :      0.167u      0.000s      0.034w      3 calls
| | JK: K                           :      3.667u      0.033s      0.735w      1 calls
| | | JK: K1                        :      3.383u      0.033s      0.671w      6 calls
| | | JK: K2                        :      0.283u      0.000s      0.064w      3 calls
| JK: AO2USO                        :      0.000u      0.000s      0.000w      1 calls
SAPT(DFT):elst                      :      0.000u      0.000s      0.001w      1 calls
SAPT(DFT):exch                      :      4.750u      0.133s      0.805w      1 calls
| JK: D                             :      0.000u      0.000s      0.001w      1 calls
| JK: USO2AO                        :      0.000u      0.000s      0.000w      1 calls
| JK: JK                            :      4.483u      0.100s      0.758w      1 calls
| | JK: J                           :      0.700u      0.067s      0.131w      1 calls
| | | JK: J1                        :      0.433u      0.017s      0.080w      3 calls
| | | JK: J2                        :      0.250u      0.050s      0.048w      3 calls
| | JK: K                           :      3.750u      0.033s      0.620w      1 calls
| | | JK: K1                        :      3.433u      0.017s      0.565w      6 calls
| | | JK: K2                        :      0.317u      0.017s      0.055w      3 calls
| JK: AO2USO                        :      0.000u      0.000s      0.000w      1 calls
SAPT(DFT):ind                       :    199.867u      0.833s     32.658w      1 calls
| JK: D                             :      0.133u      0.033s      0.028w     19 calls
| JK: USO2AO                        :      0.017u      0.000s      0.001w     19 calls
| JK: JK                            :     32.383u      0.533s      5.391w     19 calls
| | JK: J                           :      4.200u      0.350s      0.750w     19 calls
| | | JK: J1                        :      2.100u      0.217s      0.387w     23 calls
| | | JK: J2                        :      1.933u      0.133s      0.336w     23 calls
| | JK: K                           :     27.683u      0.150s      4.564w     19 calls
| | | JK: K1                        :     25.367u      0.067s      4.175w     45 calls
| | | JK: K2                        :      2.200u      0.083s      0.386w     23 calls
| JK: AO2USO                        :      0.000u      0.000s      0.000w     19 calls
| RV: Form Vx                       :    163.550u      0.067s     26.565w     17 calls
| | Properties                      :     51.054p                          17697 calls
| | Functional                      :      2.646p                          17697 calls
| | Derivative Properties           :     22.228p                          17697 calls
| | V_XCd                           :     24.843p                          17697 calls
SAPT(DFT):disp                      :    363.200u     38.483s     87.920w      1 calls
| FDDS disp                         :    297.850u     30.517s     69.269w      1 calls
| | Form FDDS object                :    140.833u     21.217s     38.735w      1 calls
| | | Form JS                       :      3.483u      0.150s      0.651w      1 calls
| | | | Libint2ERI::Libint2ERI      :      0.000u      0.000s      0.001w      4 calls
| | | DFH: initialize()             :     13.983u      1.133s      3.323w      2 calls
| | | | DFH: sparsity prep          :      1.467u      0.083s      0.481w      1 calls
| | | | | Libint2ERI::Libint2ERI    :      1.200u      0.083s      0.316w      1 calls
| | | | Libint2ERI::Libint2ERI      :      1.817u      0.100s      0.711w      6 calls
| | | | DFH: AO Construction        :     10.467u      0.933s      2.091w      2 calls
| | | DFH: transform()              :     52.683u     11.717s     17.259w      2 calls
| | | | Libint2ERI::Libint2ERI      :      2.317u      0.100s      0.984w      2 calls
| | | | DFH: Total Workflow         :     21.683u      1.650s      4.708w     18 calls
| | | | | DFH: Total Transform      :     21.683u      1.650s      4.708w     18 calls
| | | | | | DFH: 1st Contraction    :     12.000u      0.817s      2.421w      6 calls
| | | | | | DFH: 2nd Contraction    :      9.683u      0.833s      2.287w     12 calls
| | | | DFH: MO to disk, Qbs        :      0.117u      0.017s      0.024w      1 calls
| | | | DFH: MO to disk, bsQ        :      0.083u      0.017s      0.015w      1 calls
| | | | DFH: MO to disk, sbQ        :      0.067u      0.033s      0.014w      1 calls
| | | | DFH: MO to disk, Qar        :      0.217u      0.067s      0.044w      1 calls
| | | | DFH: MO to disk, arQ        :      0.150u      0.067s      0.037w      1 calls
| | | | DFH: MO to disk, raQ        :      0.150u      0.083s      0.043w      1 calls
| | | | DFH: Metric Contractions    :     26.983u      6.567s      9.466w      2 calls
| | | | | Libint2ERI::Libint2ERI    :      0.017u      0.000s      0.000w      4 calls
| | | | | DFH: Total Workflow       :     18.083u      0.817s      4.328w     12 calls
| | | | DFH: MO to disk, bbR        :      0.000u      0.000s      0.001w      1 calls
| | | | DFH: MO to disk, bsR        :      0.033u      0.033s      0.013w      1 calls
| | | | DFH: MO to disk, aaR        :      0.017u      0.017s      0.002w      1 calls
| | | | DFH: MO to disk, arR        :      0.133u      0.100s      0.034w      1 calls
| | | | DFH: MO to disk, rrR        :      0.317u      1.417s      0.890w      1 calls
| | | | DFH: MO to disk, ssR        :      0.317u      1.133s      0.755w      1 calls
| | | FDDS: QR                      :      4.467u      0.500s      1.288w      1 calls
| | | FDDS: Form X                  :     15.367u      1.417s      3.612w      1 calls
| | | FDDS: Form Y                  :     50.850u      6.300s     12.595w      1 calls
| | Form xc kernel                  :     24.267u      0.217s      4.772w      1 calls
| | | Libint2ERI::Libint2ERI        :      2.550u      0.033s      1.464w      4 calls
| | Time Integration                :    131.883u      7.667s     24.960w      1 calls
| MP2 disp                          :     64.850u      7.933s     18.553w      1 calls
| | SAPT0: DF Integrals             :     36.633u      5.283s     12.293w      1 calls
| | | Libint2ERI::Libint2ERI        :      4.300u      0.033s      2.191w     10 calls
| | SAPT0: W Integrals              :      0.017u      0.033s      0.042w      1 calls
| | SAPT0: Exch-Disp20 N^5          :      2.917u      0.650s      0.975w      1 calls
| | SAPT0: Exch-Disp20 N^4          :     24.817u      1.950s      5.141w      1 calls

**************************************************************************************
